124
Lattice="12.432359484 0.002819888 -4.408208854 -6.204788213 10.77658718 -4.382904231 -0.011761452 0.010548783 13.191303842" Properties=species:S:1:pos:R:3:REF_force:R:3 structure_name=structure_24_neb_adversarial_2251_step_0 REF_energy=-1047.84446622 REF_stress="-0.2220466803605976 -0.0013392655791772744 0.05800446641993592 -0.0013392655791772744 -0.0957153587245754 0.006151993401999839 0.05800446641993592 0.006151993401999839 -0.12614048749449835" Reduced_energy=115.25358941009995 pbc="T T T"
Zr      12.18882000       0.29526000      -4.23260000       0.38189000      -1.41775400      -2.03390800
Zr       5.09023000       0.11958000      -1.80557000       0.46851500       1.48632600      -0.19033200
Zr      10.06320000       0.02368000       4.05080000      -0.04787900      -1.47537700       2.57750900
Ti       9.75511000       4.13916000       6.62148000       2.65324300       1.44876400       2.12799900
Ti      -3.49708000       6.40316000      -0.16492000      -3.03979500      -0.41076900       1.83709100
Ti       1.24233000       1.88232000       6.50732000       2.84122100       5.09709700      -4.60719800
Ti      -0.11059000       3.79537000      -0.00991000      -1.70139500      -1.11605400      -0.98860100
Ti      -0.77023000       4.20623000       3.00392000     222.67117700      12.12229600    -100.11446600
Ti       0.04657000       4.37038000       5.32520000       1.90452700      -1.51985100       2.72295200
Ti       2.70273000       4.59043000       4.64942000      -0.81560100      -1.55413500      -2.41411400
Ti       0.72768000       5.75860000       1.21711000       1.75926900       2.08519700      -1.20956300
Ti       1.31839000      10.38759000      -4.56104000      -0.68797300       2.11266100      -0.54949800
Ti       5.94394000       2.37715000       1.15274000       1.59793600      -1.34942800       4.47686200
Ti       6.20884000       1.70383000       7.00955000      -0.47714100       2.77152600       0.03767000
Ti       3.89274000       6.53927000      -2.77064000      -3.21386000       0.38599100       2.31231200
Ti       2.59695000       8.84064000       1.77157000       0.15021800      -1.39244800      -1.04735600
Ti      10.39293000       0.20554000       7.10590000      -2.06593600       0.76839500      -1.05328400
Ti       8.32518000       2.20031000      -1.78894000       3.89396200      -4.24656200       0.02289100
V        0.45849000       0.29362000       2.51007000      -2.39275600      -1.53107200       1.52084900
V        6.24617000      10.50385000      -3.75219000       0.20917300       2.06082000       1.61122000
V       10.98969000       2.10945000      -2.49554000      -0.41402200      -0.38982100      -0.79079400
V       -0.89138000       2.01889000       4.56398000      -2.26029700      -1.35282100      -1.13866900
V       -1.04159000       1.95161000       6.85050000      -2.97558000       4.07504300       1.29090000
V       -1.83709000       4.13764000       3.47756000    -223.12986500     -16.12825900      96.23699700
V       -3.39281000       6.52268000      -2.55466000      -1.69808900      -0.87759800      -2.15230600
V        8.70479000       5.98733000       0.60731000      -1.96859600       3.64341200       0.18786400
V        8.80836000       6.24608000       3.37969000      -1.69914500       3.12266800       0.53689300
V        7.22886000       8.74738000      -0.01040000       4.21513100      -1.60519800      -0.95490300
V       -4.90424000       8.75054000       7.32990000      -0.37448800      -0.64629000      -1.48520400
V        2.37641000       0.25835000      -0.84532000       0.69445400      -4.91461000       0.48723100
V       -3.62798000      10.54490000      -2.50723000       0.66825600       1.93053200      -0.32401600
V       -3.60709000      10.72569000       0.32889000      -0.51243000       0.10434200      -2.24844100
V        1.09289000       1.91323000       3.70562000       3.04616500       2.40307300       0.14968100
V        1.19842000       1.72661000       9.09571000       0.04538900       3.88958800      -1.52448900
V       -0.28607000       4.47124000       8.36440000       1.17944300      -2.98598400      -2.00400100
V       -1.13080000       6.38739000       9.50751000      -4.18884900       2.56407400       3.12820300
V       -1.31268000       6.69667000      -0.52382000       2.85641400      -2.71231300      -1.73876500
V       -1.25146000       6.78107000       2.18357000      -1.49379500      -0.76965700      -2.11733900
V       -1.20262000       6.53082000       7.30727000      -0.44877800      -0.60320800      -3.25858900
V       -2.26178000       8.78694000      -4.49589000      -1.56164900      -0.73724100       0.18567500
V       -2.50450000       8.34405000      -1.64156000       0.05011300       3.43666700      -0.84904400
V       -2.09534000       8.38494000       0.87786000      -2.40393800       2.18380500       0.13668200
V       -2.53018000       8.43928000       3.86214000      -0.24453000       1.20291100      -2.47510800
V        4.59396000       0.29096000       0.87347000       2.48019500      -3.28765800       1.43171900
V       -1.30260000      10.51422000       1.58148000       0.25786600       0.06892900       3.70534600
V        3.72207000       2.72509000      -2.83952000       1.46677300      -4.59983200       1.69433100
V        3.62527000       1.81671000      -0.05686000      -0.77783600       4.91969600       0.15153400
V        4.01513000       2.47239000       2.72118000      -1.53392600      -2.09004700       0.56184200
V        4.19142000       1.71314000       5.50263000      -1.75982200       2.69862200      -1.29709800
V        3.58083000       2.24684000       7.84624000       0.67431400      -1.51332300       0.46205200
V        2.50024000       4.18774000       9.64116000      -2.84550900       2.54182700      -0.79100400
V        0.92651000       6.24997000      -4.12932000       4.69076200       1.39868600      -3.19643800
V        0.92074000       6.38801000      -1.88020000       1.89467700       2.17634800       2.98856600
V        0.06568000       8.43965000       7.44385000      -0.75302200       0.59069100       3.96522300
V       -0.40756000       8.65493000      -2.61290000       2.00485200       0.39677300      -0.83047800
V        0.17300000       8.69851000       0.29224000       0.29254000      -0.91912700      -2.87136800
V       -0.03118000       8.77996000       2.53037000       0.74039600       0.08793600       2.63068200
V        0.36448000       8.55859000       5.18133000      -5.39876600      -0.55330300      -2.35621600
V        7.54583000       0.08853000       5.35101000      -0.30769500       0.46584300      -1.44159800
V        1.00748000      10.74012000       3.52619000       2.15945600      -0.52503100       0.34142300
V        6.36897000       2.22613000       9.37504000      -1.54270300      -0.74796100       1.72668100
V        6.63292000       2.74061000       4.65271000      -1.76708600      -1.95237700      -1.59438000
V        4.68825000       4.17711000       8.71006000       3.19640700       1.85975900      -0.06441800
V        5.02484000       4.52634000       0.90307000      -0.34343700      -0.63527900      -1.56300300
V        5.15100000       4.30172000       3.60266000       0.80761000       0.48200800       0.43484600
V        4.69005000       4.61046000       6.34173000       3.31133700      -2.86366700      -0.23050900
V        4.00879000       6.55581000      -5.08204000      -2.92987900      -0.31336000      -2.02577100
V        3.93396000       6.59308000       0.20015000      -3.28786300      -0.76666200      -1.10887500
V        4.31190000       6.25925000       2.67824000      -4.64463900       0.26379000       0.57242100
V        2.16022000       8.40988000       6.57109000       4.74594800      -0.81900100       2.41085400
V        2.21264000       8.49506000      -3.78367000       0.88343800      -0.33165800       1.40920100
V        2.06669000       8.32882000      -0.82480000       1.43528700       1.03862800      -1.31203000
V        2.44657000       8.64618000       4.03477000       2.26033400       1.13732500       1.76015500
V        9.70803000       0.24492000       9.58416000      -0.63582100      -1.71370400       1.37612400
V        3.94644000      10.55358000      -5.25276000      -0.54991200       1.18249400      -1.20051200
V        9.77456000       0.38916000       1.53574000       0.02937600      -2.62235400      -2.06577900
V        8.61919000       2.27465000      -4.36940000       1.66774200      -0.09842800      -1.47937600
V        8.73819000       2.39513000       0.88604000       0.66321600      -0.53846300      -0.20819600
V        8.97352000       1.99221000       3.35857000      -1.58248400       2.36008800       0.25289500
V        8.76000000       2.22087000       5.98237000      -0.57174000      -1.95902700      -0.08956200
V        7.57016000       4.01271000      -2.71999000      -1.87670000       4.54968900      -2.35130600
V        7.63258000       4.27363000      -0.28964000      -0.40353600       2.14356900       1.95007700
V        7.58242000       4.18669000       2.61648000      -0.87909600      -0.05151900      -1.01939500
V        6.22573000       6.50179000      -5.80639000       1.21164700      -0.53718600      -2.81345300
V        5.99983000       6.75693000      -3.60590000       2.90304600      -1.55889500       1.30661400
V        5.77931000       6.40557000      -0.80868000       3.52468400       1.24162300      -2.52253900
V        6.12917000       6.62255000       1.55282000       5.06557800      -2.62493600       1.78156700
V        6.12908000       6.61601000       4.22105000       2.26766100      -1.97303400       1.35202100
V        5.14479000       8.14176000       5.97110000      -2.32850100       2.27521900       1.65845700
V        5.00949000       8.70574000      -4.35354000      -1.33780000      -0.62547100      -0.86585500
V        4.92221000       8.95664000      -1.96964000      -0.11427400      -1.20170800       1.07744900
V        4.83312000       8.35817000       3.38138000       1.34804400       2.69915600       1.44270000
Cr       0.20078000       0.47598000       7.53056000      -2.59554300      -6.57271700       2.69149100
Cr      -6.18336000      10.75955000       5.94664000       0.98314700       0.48228800       1.76306900
Cr       9.77157000       4.53080000      -3.23837000      -0.09419200      -0.89179600      -1.28796000
Cr      -2.39986000       4.81257000       6.02968000       0.02661000      -4.09106600       1.29482100
Cr       9.73977000       4.45932000       3.79624000       0.88588800      -2.02975800       2.12262000
Cr      -3.71454000       7.07415000       2.28429000       3.68979600      -9.17901100       3.38514100
Cr       2.39468000       0.17975000       7.03383000       3.23044100      -2.72759300       1.32833200
Cr       1.19838000       2.01957000       0.99371000       1.74020600       2.16040000       0.80875900
Cr      -0.17476000       4.83688000      -2.37466000      -0.28292600      -3.75249500       0.73977800
Cr      -1.30241000      10.52794000       4.64761000      -0.24031900       0.99355500      -2.53013200
Cr       0.96897000       6.27857000       6.51063000       1.18378700      -0.04608600      -1.64299900
Cr       1.29665000      10.30207000       5.88527000       0.61700200       3.93738800       0.88801000
Cr       6.51706000       2.68192000      -0.78023000      -2.96221200      -1.61909500      -2.69704400
Cr       4.95531000       4.55580000      -1.89293000       0.16110100      -1.27579900       0.88074100
Cr       3.92588000       6.31504000       5.48836000      -1.74163100       2.83172400      -1.38494000
Cr       7.78656000       4.36241000       5.30070000      -1.47517000       1.95463700      -0.72012500
W       -1.19711000       2.44256000       9.82293000       1.00993600      -1.17893200      -0.77994900
W        7.38018000       8.58051000       5.29088000       2.62705500      -0.04112700      -0.14123100
W       -5.01776000       8.84058000      -0.91815000       1.44932800      -2.79476400       0.64689800
W       -4.81564000       8.61981000       1.96673000      -4.96861800       6.90415300      -3.54955600
W       -3.82220000      10.58278000       5.37949000       2.37220200       0.53178400      -0.48599600
W        1.28505000       2.01714000      11.45457000      -2.34405000       3.05448800       0.26380700
W       -1.33034000       6.14881000       4.40482000       1.52842000       8.21531400       3.57901600
W       -2.49213000       8.48094000       6.15424000      -0.67183300      -0.04271200       1.61520600
W       -1.20496000      10.68752000      -0.76888000      -0.00727600       1.06229300      -2.40225700
W        2.48825000       4.35711000      -1.10486000       0.40997300       0.19420900       2.82487000
W        2.69874000       4.26868000       1.71961000      -1.27201500      -0.76728500       0.12785300
W        2.30052000       4.41593000       7.07908000      -0.04475000      -1.00870000       2.25479000
W        1.16563000       6.73754000       3.59546000       0.62746100      -3.10177500      -0.54264800
W        1.14386000      10.76838000      -2.01185000      -0.08154300       0.22435000       2.06190200
W        7.53017000       4.35246000       7.75005000      -2.14594700      -0.92868700       1.51518300
W        5.35149000       8.68192000       0.92715000      -6.89557300       1.18838800      -0.09056200
124
Lattice="12.432359484 0.002819888 -4.408208854 -6.204788213 10.77658718 -4.382904231 -0.011761452 0.010548783 13.191303842" Properties=species:S:1:pos:R:3:REF_force:R:3 structure_name=structure_19_neb_adversarial_2251_step_0 REF_energy=-1076.61917741 REF_stress="-0.15285050151194918 -0.00289113568370951 0.04214604003289174 -0.00289113568370951 -0.08096347700744082 0.006947579845748801 0.04214604003289174 0.006947579845748801 -0.10497480603356961" Reduced_energy=86.47887822009989 pbc="T T T"
Zr      12.27194000       0.25738000      -4.27059000      -0.25633300      -1.56635500      -2.71745700
Zr       5.07979000       0.10152000      -1.74315000       0.01609700       0.51692700      -0.65715900
Zr      10.08934000       0.01167000       4.06023000      -0.90511100      -1.61494600       3.03441900
Ti       9.76323000       4.14733000       6.61367000       2.79133200       1.95395000       2.77658900
Ti      -3.57860000       6.42366000       0.02647000      -1.73219000       0.03207100       0.05706300
Ti       1.31954000       2.17221000       6.47647000       0.03219800       0.25513100      -3.83296500
Ti      -0.14000000       3.88880000      -0.02806000      -1.03425300      -1.30571700      -0.81836400
Ti      -0.77270000       4.26323000       2.92351000     137.00418600      10.56539100     -71.32865200
Ti       0.13885000       4.56668000       5.26349000       0.61209500      -2.74060700       2.62501200
Ti       2.60999000       4.63574000       4.49837000       0.04138600      -1.98952600      -0.83117400
Ti       0.89221000       5.84304000       1.22445000       0.74932400       2.46795900      -2.16454200
Ti       1.17939000      10.42556000      -4.47067000       0.21980800       1.95241300      -1.07930400
Ti       6.04680000       2.26198000       1.41010000       1.22223400      -0.42555600       1.71916900
Ti       6.16747000       1.84019000       7.17968000       0.63885000       2.53588300      -1.02780000
Ti       4.02881000       6.52855000      -2.78968000      -3.80783000       0.02787100       1.33173100
Ti       2.37907000       8.84322000       1.89167000       1.48564400      -1.26960100      -2.81863000
Ti      10.14793000       0.33340000       7.40606000      -1.23988300       0.23766000      -2.32970900
Ti       8.35834000       2.12675000      -1.70338000       3.08996200      -2.89515700      -0.60758500
V        0.30524000       0.25221000       2.45323000      -2.21636700      -2.46291500       3.66568400
V        6.13577000      10.58859000      -3.56195000       1.06039000       1.21699100       0.15018200
V       11.10742000       2.02163000      -2.40878000      -1.04235300       0.67414900      -0.95477800
V       -0.82161000       2.08864000       4.53404000      -1.79135700      -1.20723300       0.16770100
V       11.25418000       1.93990000       2.49249000      -0.67274800       3.87216400       0.45296500
V       -1.87988000       4.15870000       3.50115000    -137.48616800     -14.70075400      68.83277400
V       -3.49396000       6.46151000      10.40797000      -1.63243300       0.14477700       0.05815000
V        8.65139000       6.10426000       0.65793000      -0.33290800       1.91109500       1.07145200
V       -3.62180000       6.36186000       7.73654000      -1.91840600       1.91314000       0.57355400
V        7.30872000       8.67339000       0.12979000       3.59608400      -1.09691100      -2.24921000
V        7.40131000       8.68269000       2.67707000       1.15956300      -0.23495000       0.77817700
V        2.27291000       0.13547000      -0.82143000       1.65124400      -2.70910600      -0.00422900
V       -3.79489000      10.70404000      -2.47641000       1.88513200       0.36662800      -0.84882700
V        2.51888000       0.09381000       4.65522000      -0.08580100      -1.36794100      -1.47734600
V        1.26960000       1.92726000       3.64232000       1.29863100       2.33073200      -0.10352200
V        1.05229000       1.83902000       8.87245000       2.02294900       3.20157600       0.50450500
V       -0.19405000       4.45106000       8.33107000       0.80638800      -3.14002500      -2.13464800
V       -1.17540000       6.39438000       9.54451000      -2.95921100       2.56313700       3.75078700
V       -1.38004000       6.76722000      -0.77290000       3.05366300      -3.42795400      -0.16996100
V       -1.23880000       6.65994000       2.22803000      -1.26741200      -1.10319300      -5.42002600
V       -1.28097000       6.48330000       7.47135000      -0.83493800      -0.59406000      -5.71675300
V       -2.16907000       8.71495000      -4.36959000      -2.10687600      -0.38826800      -0.70967700
V       -2.40016000       8.30531000      -1.59886000      -1.36797700       3.81187500      -1.61431600
V       -2.24533000       8.44536000       0.95060000      -1.16632700       2.40787500      -1.13953400
V       -2.33510000       8.30093000       3.61933000      -2.24646300       4.13144000       0.94325900
V        4.63726000       0.12504000       0.95968000       1.27570000      -1.07382000       0.95152300
V       -1.24706000      10.66328000       1.74380000      -0.25100700      -0.94483400       1.59421500
V        3.77637000       2.55177000      10.18162000       0.30512800      -3.51971200       3.25434600
V        3.76498000       1.82581000      -0.13643000      -1.45091600       3.37399900       0.76164100
V        4.06159000       2.35134000       2.82132000      -2.43011400      -0.81705500      -0.16297100
V        4.08937000       1.75904000       5.49923000      -1.42274700       3.19448000      -0.97932500
V        3.68087000       2.31595000       7.91545000      -0.47800600      -3.16346600      -0.84611200
V        2.50988000       4.06616000       9.68200000      -2.28187800       2.83365700      -1.05067100
V        0.92583000       6.26347000       8.88644000       4.55674000       1.00655700      -0.90679000
V        1.02835000       6.33699000      -2.01997000       1.29712300       1.32545200       2.67076100
V        0.10316000       8.34859000       7.55510000      -0.89148900       1.60265700       2.38558900
V       -0.21601000       8.72015000      -2.76754000       1.24808600      -0.43943200       0.74823400
V        0.14633000       8.63887000       0.19719000      -0.42886500      -0.28977600      -2.25534800
V       -0.21877000       8.65072000       2.45594000       2.54883600       1.20910700       2.57714600
V        0.21718000       8.57955000       5.11047000      -3.09000900       0.21990100      -0.10874800
V        7.41019000       0.01530000       5.34885000      -0.07242600       1.31917800      -1.10332100
V        0.98421000      10.77028000       3.55783000       1.84200100      -0.58438100       0.03143200
V        6.30824000       2.28732000      -3.62472000      -0.69099600      -1.82781900       1.03147100
V        6.45641000       2.74326000       4.62994000      -0.60829200      -1.65014200      -0.86161400
V        4.88483000       4.05032000       8.67510000       2.18053900       3.95643200       0.01023900
V        5.04908000       4.53654000       0.89018000      -0.37299900      -1.60279000      -0.76297300
V        5.03144000       4.33519000       3.64568000       1.49482500       0.26230200      -0.16815200
V        4.66005000       4.57470000       6.29233000       2.93969400      -1.91968600      -0.85294500
V        4.01653000       6.45504000      -5.25302000      -2.82896600      -0.34418200      -0.45694700
V        3.86812000       6.55815000       0.17876000      -3.86598900      -1.04935100      -0.99773900
V        4.23206000       6.29262000       2.62441000      -4.14502200       0.57972400       1.06673700
V        2.15255000       8.34000000       6.78264000       3.05051600      -0.04517400       0.36315800
V        2.28749000       8.51630000      -3.67348000       0.61788100      -0.50770400       0.94336500
V        2.20449000       8.28329000      -1.01176000       0.56660400       1.31655400      -0.29938300
V        2.35167000       8.65326000       3.89030000       2.32877100       1.94838100       3.94870400
V        9.77514000       0.23775000      -3.44150000      -1.04876300      -1.38744000       1.35958900
V        3.84528000      10.55712000      -5.28064000      -0.25082700       0.86003200      -0.66366600
V        9.94467000       0.28111000       1.53810000      -1.35340700      -2.10499500      -1.81671900
V        8.64418000       2.51651000      -4.43935000       2.00449000      -2.38436000       0.34893400
V        8.54044000       2.27190000       0.79404000       1.58489500      -0.41262400       0.69695100
V        8.84307000       1.91805000       3.38807000      -1.49331900       2.75305500      -0.15448600
V        8.89060000       2.28025000       6.05104000      -2.38200700      -2.21370300      -1.06627300
V        7.53554000       4.02243000      -2.71903000      -0.19464700       4.21710800      -1.30877200
V        7.56986000       4.19798000      -0.30491000      -0.79474300       1.48456100       1.82193000
V        7.60704000       4.20693000       2.71222000      -0.96041100      -0.02345200      -1.40164000
V        6.29882000       6.46743000      -5.80192000       0.83248000      -0.64883900      -3.29204500
V        6.14579000       6.62789000      -3.72048000       1.87316900      -0.88875100       2.54603200
V        5.69249000       6.33567000      -0.75729000       4.88303900       1.29412500      -2.61742600
V        6.11495000       6.69735000       1.58295000       5.04402800      -4.36645100       2.38722100
V        6.08363000       6.55954000       4.38939000       2.29646500      -1.63403700       0.01350500
V        5.13344000       8.03461000       6.09224000      -1.96628900       3.65791200       0.67671300
V        4.81315000       8.66121000      -4.17486000       0.91757400      -0.26436500      -2.03248000
V        4.99067000       8.83825000      -1.83300000      -0.44267100      -1.11687300       0.83649700
V        4.96606000       8.46062000       3.33776000       0.31844600       1.85468000       2.31049200
Cr       0.21544000       0.38639000       7.65907000      -1.22603400      -4.81769800       0.75214100
Cr       6.18689000      10.75561000       1.55480000       0.96804100       0.53146200       2.16503300
Cr      -2.48060000       4.43295000       1.00233000      -0.73444600      -0.42852900      -1.01346900
Cr      -2.47256000       4.54145000       6.11226000      -0.49132700      -2.04135300       0.08620600
Cr       9.72678000       4.48703000       3.94252000       1.39837100      -1.77775600       1.25573600
Cr      -3.65713000       7.06386000       2.40387000       1.70665900      -8.60136800       3.17618600
Cr       2.40793000       0.12470000       6.94986000       1.39894400      -1.05025200       1.67454600
Cr       1.16321000       1.96363000       1.11008000       2.34528700       3.18526200      -0.41767600
Cr      -0.22678000       4.71743000      -2.48253000       1.08052400      -2.79232600       0.23573400
Cr      -1.24336000      10.76478000       4.62223000      -0.44915300       0.30249800      -2.10501000
Cr       0.88227000       6.33098000       6.47527000       2.04232900      -0.22998800      -1.36265100
Cr       1.21507000      10.35660000       5.88640000       0.94227900       1.94078500       0.86461300
Cr       6.34243000       2.57160000      -0.95128000      -2.56099100      -0.71843200      -0.29663200
Cr       4.93597000       4.64273000      -1.95516000       0.37924700      -3.22294800       1.00270100
Cr       3.85879000       6.40568000       5.34722000      -1.43457600       1.37543900      -0.45363200
Cr       7.79619000       4.45417000       5.26795000      -2.36099500       0.56082500      -0.16900600
W       -1.17331000       2.37517000       9.78997000       0.30344400      -1.28772500      -0.43271100
W        7.43565000       8.55777000       5.32488000       1.72346000      -0.09268100      -1.25245100
W       -5.02473000       8.79026000      -0.92203000       0.67202600      -1.41945900       1.37813100
W       -4.80690000       8.62121000       1.89000000      -4.27614800       5.67084900      -2.48945300
W       -3.81631000      10.60665000       5.34919000       1.70263300       1.16235600      -0.98066700
W        1.33805000       2.04927000      11.42336000      -1.87412700       1.57021900      -0.07660600
W       -1.31609000       6.21204000       4.43287000       0.48674400       5.59728700       5.21330200
W       -2.39089000       8.50185000       6.09706000      -1.21177200       0.02290500       1.15822600
W       -1.29374000      10.78099000      -0.77772000       0.55232900       0.03364300      -0.71832000
W        2.50852000       4.31111000      -1.04926000       0.18451100       0.10432300       2.19985700
W        2.61265000       4.27026000       1.80949000       0.41578200      -1.79847800      -0.58646600
W        2.34833000       4.29764000       7.02555000       0.34535100       1.86665500       2.60651300
W        1.21047000       6.69319000       3.60811000      -0.21802000      -2.60839900      -0.27182400
W        1.09057000      10.77494000      -1.95228000       0.97941500      -0.31346500       1.97169700
W        7.54217000       4.34825000       7.84409000      -2.21224600       0.06736500      -0.26141600
W        5.27441000       8.59890000       0.94025000      -6.72158400       3.31428300      -1.75951600
124
Lattice="12.506514868 -0.006563403 -4.45472336 -6.247323434 10.860634977 -4.42180313 -0.001986539 0.036175661 13.357557677" Properties=species:S:1:pos:R:3:REF_force:R:3 structure_name=neb_structure_9078_step_0 REF_energy=-964.19642681 REF_stress="-0.06415382590508464 -0.10872573456540605 0.0851280490735769 -0.10872573456540605 -0.21612781980746779 0.1572972459641573 0.0851280490735769 0.1572972459641573 -0.1289915776556562" Reduced_energy=136.6467709921999 pbc="T T T"
Zr      -2.30096000       4.01436000       1.12730000       0.07783600       0.15820300      -0.41813900
Zr       7.45207000       8.73739000      -2.56883000      -0.07152300       0.05979100      -0.02888400
Zr       1.30597000       2.20088000      -1.73150000      -0.16842100      -0.15292900       0.06232600
Zr       0.66124000       2.26108000       1.13281000      -0.09412300       0.16412900       0.05674500
Zr       0.06603000       4.37597000       8.08751000       0.09179900       0.09165000      -0.08581700
Zr      -1.23393000       6.47330000       4.47437000       0.04578800       0.13274200       0.03847300
Zr       1.37708000       6.47263000       6.31114000      -0.01212800      -0.24218400       0.16444400
Zr       0.14385000       8.81808000      -2.77007000      -0.10272800       0.00724400       0.12536900
Zr       0.05940000       8.84650000       0.08133000       0.10252200       0.00222900       0.02748400
Zr      -0.00557000       8.93084000       5.40440000       0.34428800       0.07690200      -0.30958000
Zr       6.27297000       2.17805000       4.49510000       0.07759600      -0.00926400       0.05100500
Ti      10.16442000       0.40817000      -3.49853000       1.06982500       2.63213700       2.64335800
Ti      -1.27878000       2.28106000       3.94624000       0.00500900       0.10714700       0.56377200
Ti       9.97698000       4.29169000       1.73390000      -0.09765300       0.17265800      -0.17732200
Ti       9.83590000       4.35120000       4.50508000      -0.04759200      -0.01887200       0.09627900
Ti       2.43237000       0.06048000       1.72837000       0.06041800       0.00753600       0.01546300
Ti       1.26341000       2.09198000       6.33435000       0.15555100       0.06896900      -0.01956200
Ti      -2.57174000       8.72324000      -1.68058000       0.02052200      -0.04372600      -0.05667400
Ti       3.83098000       2.21167000       2.66547000       0.00770900       0.07953600       0.16338800
Ti       3.84520000       6.53537000      -5.35119000      -0.03186700       0.02537600      -0.12446500
Ti       3.85670000       6.49670000      -2.59460000      -0.01310600       0.01530600       0.01581000
Ti       2.38579000       8.88984000      -6.23792000       0.20664000       0.04384600       0.04975000
Ti      10.07944000       0.04095000       1.81311000      -0.12252000       0.01239500       0.06050700