2
Lattice="30.0 0.0 0.0 0.0 18.0 0.0 0.0 0.0 17.0" Properties=species:S:1:pos:R:3:force:R:3 config_type=dimer energy=91.10317184 pbc="T T T"
W        0.00000000       0.00000000       0.00000000    -542.02174441       0.00000000       0.00000000
W        1.20000000       0.00000000       0.00000000     542.02174441       0.00000000       0.00000000
2
Lattice="30.0 0.0 0.0 0.0 18.0 0.0 0.0 0.0 17.0" Properties=species:S:1:pos:R:3:force:R:3 config_type=dimer energy=21.43213621 pbc="T T T"
W        0.00000000       0.00000000       0.00000000    -203.85422417       0.00000000       0.00000000
W        1.40000000       0.00000000       0.00000000     203.85422417       0.00000000       0.00000000
2
Lattice="30.0 0.0 0.0 0.0 18.0 0.0 0.0 0.0 17.0" Properties=species:S:1:pos:R:3:force:R:3 config_type=dimer energy=-3.68969799 pbc="T T T"
W        0.00000000       0.00000000       0.00000000     -69.19150308       0.00000000       0.00000000
W        1.60000000       0.00000000       0.00000000      69.19150308       0.00000000       0.00000000
2
Lattice="30.0 0.0 0.0 0.0 18.0 0.0 0.0 0.0 17.0" Properties=species:S:1:pos:R:3:force:R:3 config_type=dimer energy=-11.84681012 pbc="T T T"
W        0.00000000       0.00000000       0.00000000     -20.51672070       0.00000000       0.00000000
W        1.80000000       0.00000000       0.00000000      20.51672070       0.00000000       0.00000000
2
Lattice="30.0 0.0 0.0 0.0 18.0 0.0 0.0 0.0 17.0" Properties=species:S:1:pos:R:3:force:R:3 config_type=dimer energy=-13.28573201 pbc="T T T"
W        0.00000000       0.00000000       0.00000000      -9.11220477       0.00000000       0.00000000
W        1.90000000       0.00000000       0.00000000       9.11220477       0.00000000       0.00000000
2
Lattice="30.0 0.0 0.0 0.0 18.0 0.0 0.0 0.0 17.0" Properties=species:S:1:pos:R:3:force:R:3 config_type=dimer energy=-13.63534582 pbc="T T T"
W        0.00000000       0.00000000       0.00000000      -5.02201254       0.00000000       0.00000000
W        1.95000000       0.00000000       0.00000000       5.02201254       0.00000000       0.00000000
2
Lattice="30.0 0.0 0.0 0.0 18.0 0.0 0.0 0.0 17.0" Properties=species:S:1:pos:R:3:force:R:3 config_type=dimer energy=-13.80055717 pbc="T T T"
W        0.00000000       0.00000000       0.00000000      -1.70683236       0.00000000       0.00000000
W        2.00000000       0.00000000       0.00000000       1.70683236       0.00000000       0.00000000
2
Lattice="30.0 0.0 0.0 0.0 18.0 0.0 0.0 0.0 17.0" Properties=species:S:1:pos:R:3:force:R:3 config_type=dimer energy=-13.82603369 pbc="T T T"
W        0.00000000       0.00000000       0.00000000      -0.03086506       0.00000000       0.00000000
W        2.03000000       0.00000000       0.00000000       0.03086506       0.00000000       0.00000000
2
Lattice="30.0 0.0 0.0 0.0 18.0 0.0 0.0 0.0 17.0" Properties=species:S:1:pos:R:3:force:R:3 config_type=dimer energy=-13.81645011 pbc="T T T"
W        0.00000000       0.00000000       0.00000000       0.97228266       0.00000000       0.00000000
W        2.05000000       0.00000000       0.00000000      -0.97228266       0.00000000       0.00000000
2
Lattice="30.0 0.0 0.0 0.0 18.0 0.0 0.0 0.0 17.0" Properties=species:S:1:pos:R:3:force:R:3 config_type=dimer energy=-13.71213606 pbc="T T T"
W        0.00000000       0.00000000       0.00000000       3.11643036       0.00000000       0.00000000
W        2.10000000       0.00000000       0.00000000      -3.11643036       0.00000000       0.00000000
2
Lattice="30.0 0.0 0.0 0.0 18.0 0.0 0.0 0.0 17.0" Properties=species:S:1:pos:R:3:force:R:3 config_type=dimer energy=-13.32873621 pbc="T T T"
W        0.00000000       0.00000000       0.00000000       3.70178551       0.00000000       0.00000000
W        2.20000000       0.00000000       0.00000000      -3.70178551       0.00000000       0.00000000
2
Lattice="30.0 0.0 0.0 0.0 18.0 0.0 0.0 0.0 17.0" Properties=species:S:1:pos:R:3:force:R:3 config_type=dimer energy=-10.68700826 pbc="T T T"
W        0.00000000       0.00000000       0.00000000       4.22624654       0.00000000       0.00000000
W        2.80000000       0.00000000       0.00000000      -4.22624654       0.00000000       0.00000000
2
Lattice="30.0 0.0 0.0 0.0 18.0 0.0 0.0 0.0 17.0" Properties=species:S:1:pos:R:3:force:R:3 config_type=dimer energy=-10.02380705 pbc="T T T"
W        0.00000000       0.00000000       0.00000000       1.37848775       0.00000000       0.00000000
W        3.50000000       0.00000000       0.00000000      -1.37848775       0.00000000       0.00000000
1
Lattice="3.185 0.0 0.0 0.0 3.185 0.0 1.59249999499 1.59249999499 1.59249999499" Properties=species:S:1:pos:R:3:force:R:3 config_type=slice_sample virial="0.0103548856617 0.0 -0.0 0.0 0.0103548856617 -0.0 -0.0 -0.0 0.0103548856617" energy=-12.95542163 pbc="T T T"
W        0.00000000       0.00000000       0.00000000       0.00000000       0.00000000       0.00000000
1
Lattice="3.33825198354 0.0 0.0 0.0 3.185 0.0 1.59249999499 1.59249999499 1.59249999499" Properties=species:S:1:pos:R:3:force:R:3 config_type=slice_sample virial="-2.17947154575 -1.79657984515e-09 0.582203888696 -1.79657984515e-09 -0.834171941736 2.74771035141e-09 0.582203888696 2.74771035141e-09 -0.862579685023" energy=-12.88788024 pbc="T T T"
W        0.00000000       0.00000000       0.00000000       0.00000000      -0.00000000       0.00000000
1
Lattice="3.33825198354 0.0 0.0 -0.0532738049305 3.185 0.0 1.59249999499 1.59249999499 1.59249999499" Properties=species:S:1:pos:R:3:force:R:3 config_type=slice_sample virial="-2.20309534059 0.20172571642 0.3723033344 0.20172571642 -0.856550743832 0.0130669382158 0.3723033344 0.0130669382158 -0.8658686401" energy=-12.89419209 pbc="T T T"
W        0.00000000       0.00000000       0.00000000       0.00000000       0.00000000       0.00000000
1
Lattice="3.33825198354 0.0 0.0 -0.0532738049305 3.13132284522 0.0 1.59249999499 1.59249999499 1.59249999499" Properties=species:S:1:pos:R:3:force:R:3 config_type=slice_sample virial="-1.84651379447 0.178428322848 0.373834310038 0.178428322848 -0.0194165859361 -0.192030393417 0.373834310038 -0.192030393417 -0.562886016731" energy=-12.89996302 pbc="T T T"
W        0.00000000       0.00000000       0.00000000       0.00000000       0.00000000       0.00000000
1
Lattice="3.33825198354 0.0 0.0 -0.0532738049305 3.13132284522 0.0 1.6777921753 1.59249999499 1.59249999499" Properties=species:S:1:pos:R:3:force:R:3 config_type=slice_sample virial="-1.84550233686 0.217630464275 -0.302937177597 0.217630464275 -0.0351589324005 -0.234022242332 -0.302937177597 -0.234022242332 -0.566969493181" energy=-12.90226939 pbc="T T T"
W        0.00000000       0.00000000       0.00000000      -0.00000000       0.00000000       0.00000000
1
Lattice="3.33825198354 0.0 0.0 -0.0532738049305 3.13132284522 0.0 1.6777921753 1.60967828438 1.59249999499" Properties=species:S:1:pos:R:3:force:R:3 config_type=slice_sample virial="-1.83501708915 0.224798011773 -0.310021981748 0.224798011773 -0.022957306596 -0.359884051079 -0.310021981748 -0.359884051079 -0.553379829532" energy=-12.89944442 pbc="T T T"
W        0.00000000       0.00000000       0.00000000       0.00000000       0.00000000       0.00000000
1
Lattice="3.33825198354 0.0 0.0 -0.0532738049305 3.13132284522 0.0 1.6777921753 1.60967828438 1.61795545833" Properties=species:S:1:pos:R:3:force:R:3 config_type=slice_sample virial="-2.13772474028 0.214354571658 -0.303221705634 0.214354571658 -0.3261223409 -0.352544390546 -0.303221705634 -0.352544390546 -1.30617696748" energy=-12.88441052 pbc="T T T"
W        0.00000000       0.00000000       0.00000000       0.00000000      -0.00000000       0.00000000
1
Lattice="3.22677237578 0.0 0.0 -0.0532738049305 3.13132284522 0.0 1.6777921753 1.60967828438 1.61795545833" Properties=species:S:1:pos:R:3:force:R:3 config_type=slice_sample virial="-0.586273242658 0.285344199494 -0.859304943762 0.285344199494 0.430696282675 -0.448724974011 -0.859304943762 -0.448724974011 -0.607689718742" energy=-12.91039198 pbc="T T T"
W        0.00000000       0.00000000       0.00000000       0.00000000       0.00000000       0.00000000
1
Lattice="3.22677237578 0.0 0.0 -0.219123676692 3.13132284522 0.0 1.6777921753 1.60967828438 1.61795545833" Properties=species:S:1:pos:R:3:force:R:3 config_type=slice_sample virial="-0.475464152999 1.06606446639 -1.73941974844 1.06606446639 0.681757658986 -0.857516900249 -1.73941974844 -0.857516900249 -0.207528525037" energy=-12.80673488 pbc="T T T"
W        0.00000000       0.00000000       0.00000000       0.00000000       0.00000000       0.00000000
1
Lattice="3.22677237578 0.0 0.0 -0.219123676692 3.17660770341 0.0 1.6777921753 1.60967828438 1.61795545833" Properties=species:S:1:pos:R:3:force:R:3 config_type=slice_sample virial="-0.777842210403 0.993407812163 -1.59824899984 0.993407812163 -0.0516747618001 -0.603185320731 -1.59824899984 -0.603185320731 -0.567085062495" energy=-12.82181568 pbc="T T T"
W        0.00000000       0.00000000       0.00000000       0.00000000       0.00000000       0.00000000
1
Lattice="3.22677237578 0.0 0.0 -0.219123676692 3.17660770341 0.0 1.52993428251 1.60967828438 1.61795545833" Properties=species:S:1:pos:R:3:force:R:3 config_type=slice_sample virial="-0.859279830739 0.919524928384 -0.269102209554 0.919524928384 -0.342848269925 -0.242075962965 -0.269102209554 -0.242075962965 -0.840242657964" energy=-12.90648905 pbc="T T T"
W        0.00000000       0.00000000       0.00000000       0.00000000       0.00000000       0.00000000
1
Lattice="3.22677237578 0.0 0.0 -0.219123676692 3.17660770341 0.0 1.52993428251 1.47827998561 1.61795545833" Properties=species:S:1:pos:R:3:force:R:3 config_type=slice_sample virial="-0.723844202095 0.910420388333 0.0184942203047 0.910420388333 -0.339574743327 0.938109551592 0.0184942203047 0.938109551592 -0.752571958453" energy=-12.87936455 pbc="T T T"
W        0.00000000       0.00000000       0.00000000       0.00000000       0.00000000       0.00000000
1
Lattice="3.22677237578 0.0 0.0 -0.219123676692 3.17660770341 0.0 1.52993428251 1.47827998561 1.58937918593" Properties=species:S:1:pos:R:3:force:R:3 config_type=slice_sample virial="-0.377005393366 0.972848784217 0.0268853151925 0.972848784217 0.0439906631527 0.975852811522 0.0268853151925 0.975852811522 0.114201977811" energy=-12.88565035 pbc="T T T"
W        0.00000000       0.00000000       0.00000000       0.00000000      -0.00000000       0.00000000
1
Lattice="3.19805144901 0.0 0.0 -0.219123676692 3.17660770341 0.0 1.52993428251 1.47827998561 1.58937918593" Properties=species:S:1:pos:R:3:force:R:3 config_type=slice_sample virial="0.0694315180928 0.972286415274 -0.116194717543 0.972286415274 0.239417652146 0.975660238272 -0.116194717543 0.975660238272 0.298181113186" energy=-12.88592041 pbc="T T T"
W        0.00000000       0.00000000       0.00000000       0.00000000       0.00000000       0.00000000
1
Lattice="3.19805144901 0.0 0.0 0.157334741634 3.17660770341 0.0 1.52993428251 1.47827998561 1.58937918593" Properties=species:S:1:pos:R:3:force:R:3 config_type=slice_sample virial="0.1022101504 -0.465537356378 1.25037019155 -0.465537356378 0.37310194903 0.857415046191 1.25037019155 0.857415046191 0.383588148678" energy=-12.85287733 pbc="T T T"
W        0.00000000       0.00000000       0.00000000       0.00000000       0.00000000       0.00000000
1
Lattice="3.19805144901 0.0 0.0 0.157334741634 3.20946893958 0.0 1.52993428251 1.47827998561 1.58937918593" Properties=species:S:1:pos:R:3:force:R:3 config_type=slice_sample virial="-0.08213827985 -0.412716981173 1.18797503607 -0.412716981173 -0.127952258768 0.985074277956 1.18797503607 0.985074277956 0.182248295722" energy=-12.84525598 pbc="T T T"
W        0.00000000       0.00000000       0.00000000      -0.00000000       0.00000000       0.00000000
1
Lattice="3.19805144901 0.0 0.0 0.157334741634 3.20946893958 0.0 1.53079527892 1.47827998561 1.58937918593" Properties=species:S:1:pos:R:3:force:R:3 config_type=slice_sample virial="-0.0824984996319 -0.414618568995 1.17945539166 -0.414618568995 -0.130433751597 0.985749466195 1.17945539166 0.985749466195 0.180290643429" energy=-12.84589657 pbc="T T T"
W        0.00000000       0.00000000       0.00000000       0.00000000       0.00000000       0.00000000
1
Lattice="3.19805144901 0.0 0.0 0.157334741634 3.20946893958 0.0 1.53079527892 1.63389690031 1.58937918593" Properties=species:S:1:pos:R:3:force:R:3 config_type=slice_sample virial="-0.238824214154 -0.795261868891 1.37922120852 -0.795261868891 -0.120311805006 -0.522248680543 1.37922120852 -0.522248680543 0.12786200792" energy=-12.86833828 pbc="T T T"
W        0.00000000       0.00000000       0.00000000       0.00000000       0.00000000       0.00000000
1
Lattice="3.19805144901 0.0 0.0 0.157334741634 3.20946893958 0.0 1.53079527892 1.63389690031 1.56738182819" Properties=species:S:1:pos:R:3:force:R:3 config_type=slice_sample virial="0.0535136246727 -0.837198637118 1.40601129055 -0.837198637118 0.185725305317 -0.543276283873 1.40601129055 -0.543276283873 0.840583140659" energy=-12.86146012 pbc="T T T"
W        0.00000000       0.00000000       0.00000000       0.00000000      -0.00000000       0.00000000
1
Lattice="3.08352266339 0.0 0.0 0.157334741634 3.20946893958 0.0 1.53079527892 1.63389690031 1.56738182819" Properties=species:S:1:pos:R:3:force:R:3 config_type=slice_sample virial="1.97472984989 -0.859031535188 0.946145983799 -0.859031535188 0.817979022345 -0.488044922735 0.946145983799 -0.488044922735 1.56166895576" energy=-12.86347997 pbc="T T T"
W        0.00000000       0.00000000       0.00000000       0.00000000       0.00000000       0.00000000
1
Lattice="3.08352266339 0.0 0.0 -0.0146054745319 3.20946893958 0.0 1.53079527892 1.63389690031 1.56738182819" Properties=species:S:1:pos:R:3:force:R:3 config_type=slice_sample virial="2.01834825169 0.0719359614457 0.0284066069246 0.0719359614457 0.616806999466 -0.302802396303 0.0284066069246 -0.302802396303 1.40436909634" energy=-12.91141017 pbc="T T T"
W        0.00000000       0.00000000       0.00000000       0.00000000       0.00000000       0.00000000
1
Lattice="3.08352266339 0.0 0.0 -0.0146054745319 3.20603956458 0.0 1.53079527892 1.63389690031 1.56738182819" Properties=species:S:1:pos:R:3:force:R:3 config_type=slice_sample virial="2.04389023243 0.0724716310387 0.0285790575083 0.0724716310387 0.673785042858 -0.32209441769 0.0285790575083 -0.32209441769 1.42925904622" energy=-12.91036198 pbc="T T T"
W        0.00000000       0.00000000       0.00000000       0.00000000       0.00000000       0.00000000
1
Lattice="3.08352266339 0.0 0.0 -0.0146054745319 3.20603956458 0.0 1.45369344989 1.63389690031 1.56738182819" Properties=species:S:1:pos:R:3:force:R:3 config_type=slice_sample virial="2.02908488438 0.0236363428931 0.794226553517 0.0236363428931 0.775876808605 -0.306532243854 0.794226553517 -0.306532243854 1.48590126317" energy=-12.89016769 pbc="T T T"
W        0.00000000       0.00000000       0.00000000      -0.00000000      -0.00000000       0.00000000
1
Lattice="3.08352266339 0.0 0.0 -0.0146054745319 3.20603956458 0.0 1.45369344989 1.58313150925 1.56738182819" Properties=species:S:1:pos:R:3:force:R:3 config_type=slice_sample virial="2.02007631177 0.0975978991447 0.799490106282 0.0975978991447 0.762266885686 0.220014739494 0.799490106282 0.220014739494 1.48412692165" energy=-12.89152788 pbc="T T T"
W        0.00000000       0.00000000       0.00000000       0.00000000       0.00000000       0.00000000
1
Lattice="3.08352266339 0.0 0.0 -0.0146054745319 3.20603956458 0.0 1.45369344989 1.58313150925 1.5423054304" Properties=species:S:1:pos:R:3:force:R:3 config_type=slice_sample virial="2.38418637629 0.105383481425 0.81642302704 0.105383481425 1.16332580555 0.22254179301 0.81642302704 0.22254179301 2.40730361835" energy=-12.86021971 pbc="T T T"
W        0.00000000       0.00000000       0.00000000       0.00000000       0.00000000       0.00000000
1
Lattice="3.16446439742 0.0 0.0 -0.0146054745319 3.20603956458 0.0 1.45369344989 1.58313150925 1.5423054304" Properties=species:S:1:pos:R:3:force:R:3 config_type=slice_sample virial="0.938894210123 0.118946943386 1.16982897465 0.118946943386 0.68294045998 0.219747671143 1.16982897465 0.219747671143 1.86266505766" energy=-12.878705 pbc="T T T"
W        0.00000000       0.00000000       0.00000000       0.00000000       0.00000000       0.00000000
1
Lattice="3.04311778962 0.0 0.0 0.0 3.185 0.0 1.59249999499 1.59249999499 1.59249999499" Properties=species:S:1:pos:R:3:force:R:3 config_type=slice_sample virial="2.58221683287 2.21577207661e-09 -0.711448172824 2.21577207661e-09 1.05200202822 -3.27548915673e-09 -0.711448172824 -3.27548915673e-09 1.04019721867" energy=-12.88084367 pbc="T T T"
W        0.00000000       0.00000000       0.00000000      -0.00000000       0.00000000       0.00000000
1
Lattice="3.04311778962 0.0 0.0 -0.0218296908639 3.185 0.0 1.59249999499 1.59249999499 1.59249999499" Properties=species:S:1:pos:R:3:force:R:3 config_type=slice_sample virial="2.57326525809 0.101590956098 -0.81854680209 0.101590956098 1.07463780566 -0.0240150248508 -0.81854680209 -0.0240150248508 1.06256108976" energy=-12.87525352 pbc="T T T"
W        0.00000000       0.00000000       0.00000000       0.00000000       0.00000000       0.00000000
1
Lattice="3.04311778962 0.0 0.0 -0.0218296908639 3.21694341948 0.0 1.59249999499 1.59249999499 1.59249999499" Properties=species:S:1:pos:R:3:force:R:3 config_type=slice_sample virial="2.33616661968 0.0790615325185 -0.777852107268 0.0790615325185 0.556921215033 0.14642296305 -0.777852107268 0.14642296305 0.833464050857" energy=-12.88285749 pbc="T T T"
W        0.00000000       0.00000000       0.00000000       0.00000000       0.00000000       0.00000000
1
Lattice="3.04311778962 0.0 0.0 -0.0218296908639 3.21694341948 0.0 1.62516868914 1.59249999499 1.59249999499" Properties=species:S:1:pos:R:3:force:R:3 config_type=slice_sample virial="2.31038058832 0.0637082419764 -1.09671677901 0.0637082419764 0.649798100822 0.143682747538 -1.09671677901 0.143682747538 0.900109308752" energy=-12.86369058 pbc="T T T"
W        0.00000000       0.00000000       0.00000000       0.00000000       0.00000000       0.00000000
1
Lattice="3.04311778962 0.0 0.0 -0.0218296908639 3.21694341948 0.0 1.62516868914 1.70608301444 1.59249999499" Properties=species:S:1:pos:R:3:force:R:3 config_type=slice_sample virial="2.40321786286 0.299132407435 -1.15962046245 0.299132407435 0.686262190307 -1.08943443495 -1.15962046245 -1.08943443495 1.01182604841" energy=-12.82973318 pbc="T T T"
W        0.00000000       0.00000000       0.00000000       0.00000000       0.00000000       0.00000000
1
Lattice="3.04311778962 0.0 0.0 -0.0218296908639 3.21694341948 0.0 1.62516868914 1.70608301444 1.6584843373" Properties=species:S:1:pos:R:3:force:R:3 config_type=slice_sample virial="1.42461077358 0.257152679908 -1.00463710368 0.257152679908 -0.253612822033 -0.96397716572 -1.00463710368 -0.96397716572 -0.857828356814" energy=-12.83249783 pbc="T T T"
W        0.00000000       0.00000000       0.00000000       0.00000000      -0.00000000       0.00000000
1
Lattice="3.08274432376 0.0 0.0 -0.0218296908639 3.21694341948 0.0 1.62516868914 1.70608301444 1.6584843373" Properties=species:S:1:pos:R:3:force:R:3 config_type=slice_sample virial="0.761404822995 0.227115303224 -0.834551503773 0.227115303224 -0.563114976203 -0.926385694367 -0.834551503773 -0.926385694367 -1.21335190218" energy=-12.85860518 pbc="T T T"
W        0.00000000       0.00000000       0.00000000       0.00000000       0.00000000       0.00000000
1
Lattice="3.08274432376 0.0 0.0 0.301119910508 3.21694341948 0.0 1.62516868914 1.70608301444 1.6584843373" Properties=species:S:1:pos:R:3:force:R:3 config_type=slice_sample virial="0.708970982217 -1.35275033212 0.877190583855 -1.35275033212 -0.354640321516 -1.15796443276 0.877190583855 -1.15796443276 -0.972206269079" energy=-12.80077372 pbc="T T T"
W        0.00000000       0.00000000       0.00000000       0.00000000       0.00000000       0.00000000
1
Lattice="3.08274432376 0.0 0.0 0.301119910508 3.23523550243 0.0 1.62516868914 1.70608301444 1.6584843373" Properties=species:S:1:pos:R:3:force:R:3 config_type=slice_sample virial="0.58588667388 -1.31951994196 0.830552791398 -1.31951994196 -0.620958060492 -1.04897076285 0.830552791398 -1.04897076285 -1.12567607157" energy=-12.80453161 pbc="T T T"
W        0.00000000       0.00000000       0.00000000       0.00000000       0.00000000       0.00000000
1
Lattice="3.08274432376 0.0 0.0 0.301119910508 3.23523550243 0.0 1.68421973612 1.70608301444 1.6584843373" Properties=species:S:1:pos:R:3:force:R:3 config_type=slice_sample virial="0.615105585547 -1.24487075712 0.330242874613 -1.24487075712 -0.686292828252 -0.863735590918 0.330242874613 -0.863735590918 -1.21726307481" energy=-12.82520675 pbc="T T T"
W        0.00000000       0.00000000       0.00000000       0.00000000       0.00000000       0.00000000
1
Lattice="3.08274432376 0.0 0.0 0.301119910508 3.23523550243 0.0 1.68421973612 1.70917241913 1.6584843373" Properties=species:S:1:pos:R:3:force:R:3 config_type=slice_sample virial="0.617695013729 -1.24687994642 0.339870089571 -1.24687994642 -0.684012365195 -0.892888234205 0.339870089571 -0.892888234205 -1.20948575776" energy=-12.82357114 pbc="T T T"
W        0.00000000       0.00000000       0.00000000       0.00000000       0.00000000       0.00000000
1
Lattice="3.08274432376 0.0 0.0 0.301119910508 3.23523550243 0.0 1.68421973612 1.70917241913 1.74641130001" Properties=species:S:1:pos:R:3:force:R:3 config_type=slice_sample virial="-0.53321068614 -0.879528420272 0.305701514939 -0.879528420272 -1.74205443549 -0.705187235176 0.305701514939 -0.705187235176 -3.06518691184" energy=-12.71131372 pbc="T T T"
W        0.00000000       0.00000000       0.00000000       0.00000000       0.00000000       0.00000000
1
Lattice="3.0059531336 0.0 0.0 0.301119910508 3.23523550243 0.0 1.68421973612 1.70917241913 1.74641130001" Properties=species:S:1:pos:R:3:force:R:3 config_type=slice_sample virial="0.587243464941 -0.814348654259 0.0566499327997 -0.814348654259 -1.28074319316 -0.61275992748 0.0566499327997 -0.61275992748 -2.42317896081" energy=-12.71230066 pbc="T T T"
W        0.00000000       0.00000000       0.00000000       0.00000000       0.00000000       0.00000000
1
Lattice="3.0059531336 0.0 0.0 0.0720959868027 3.23523550243 0.0 1.68421973612 1.70917241913 1.74641130001" Properties=species:S:1:pos:R:3:force:R:3 config_type=slice_sample virial="0.530825209929 -0.0518534895926 -0.759775641397 -0.0518534895926 -1.2988346821 -0.581061810541 -0.759775641397 -0.581061810541 -2.36559307655" energy=-12.71926244 pbc="T T T"
W        0.00000000       0.00000000       0.00000000       0.00000000       0.00000000       0.00000000
1
Lattice="3.0059531336 0.0 0.0 0.0720959868027 3.13025717965 0.0 1.68421973612 1.70917241913 1.74641130001" Properties=species:S:1:pos:R:3:force:R:3 config_type=slice_sample virial="1.23259911716 0.0427745529549 -0.907273505839 0.0427745529549 0.0905646835484 -1.02137487776 -0.907273505839 -1.02137487776 -1.37956508113" energy=-12.71306998 pbc="T T T"
W        0.00000000       0.00000000       0.00000000       0.00000000       0.00000000       0.00000000
1
Lattice="3.0059531336 0.0 0.0 0.0720959868027 3.13025717965 0.0 1.52481876533 1.70917241913 1.74641130001" Properties=species:S:1:pos:R:3:force:R:3 config_type=slice_sample virial="1.32750405391 -0.277926588645 0.213406796137 -0.277926588645 -0.00424240668547 -1.00913987924 0.213406796137 -1.00913987924 -1.69909752967" energy=-12.7439582 pbc="T T T"
W        0.00000000       0.00000000       0.00000000       0.00000000       0.00000000       0.00000000
1
Lattice="3.0059531336 0.0 0.0 0.0720959868027 3.13025717965 0.0 1.52481876533 1.60867081103 1.74641130001" Properties=species:S:1:pos:R:3:force:R:3 config_type=slice_sample virial="1.35066791439 -0.238141310689 0.120975019249 -0.238141310689 0.0531234396456 -0.317627408072 0.120975019249 -0.317627408072 -2.11307022265" energy=-12.78206953 pbc="T T T"
W        0.00000000       0.00000000       0.00000000      -0.00000000       0.00000000       0.00000000
1
Lattice="3.0059531336 0.0 0.0 0.0720959868027 3.13025717965 0.0 1.52481876533 1.60867081103 1.63976233696" Properties=species:S:1:pos:R:3:force:R:3 config_type=slice_sample virial="3.02887216569 -0.342139358144 0.177986799411 -0.342139358144 1.54978277873 -0.47260041109 0.177986799411 -0.47260041109 0.256840095937" energy=-12.8468937 pbc="T T T"
W        0.00000000       0.00000000       0.00000000       0.00000000       0.00000000       0.00000000
1
Lattice="3.27646246766 0.0 0.0 0.0720959868027 3.13025717965 0.0 1.52481876533 1.60867081103 1.63976233696" Properties=species:S:1:pos:R:3:force:R:3 config_type=slice_sample virial="-1.48356975552 -0.363061048246 1.29913702387 -0.363061048246 -0.0371555279834 -0.483316205952 1.29913702387 -0.483316205952 -1.3509953118" energy=-12.84188851 pbc="T T T"
W        0.00000000       0.00000000       0.00000000       0.00000000       0.00000000       0.00000000
1
Lattice="3.27646246766 0.0 0.0 -0.0280204070728 3.13025717965 0.0 1.52481876533 1.60867081103 1.63976233696" Properties=species:S:1:pos:R:3:force:R:3 config_type=slice_sample virial="-1.5378941571 0.0286021855074 0.82512529255 0.0286021855074 -0.148716458803 -0.316332025871 0.82512529255 -0.316332025871 -1.49433325039" energy=-12.88052658 pbc="T T T"
W        0.00000000       0.00000000       0.00000000      -0.00000000       0.00000000       0.00000000
1
Lattice="3.27646246766 0.0 0.0 -0.0280204070728 3.19471202109 0.0 1.52481876533 1.60867081103 1.63976233696" Properties=species:S:1:pos:R:3:force:R:3 config_type=slice_sample virial="-1.92278999026 0.0825661652789 0.777853594439 0.0825661652789 -1.13970632037 -0.0608537240716 0.777853594439 -0.0608537240716 -1.89961133292" energy=-12.87113939 pbc="T T T"
W        0.00000000       0.00000000       0.00000000       0.00000000       0.00000000       0.00000000
1
Lattice="3.27646246766 0.0 0.0 -0.0280204070728 3.19471202109 0.0 1.69729517904 1.60867081103 1.63976233696" Properties=species:S:1:pos:R:3:force:R:3 config_type=slice_sample virial="-1.94111469328 0.115904320531 -0.571413889345 0.115904320531 -1.15467213475 -0.108846733303 -0.571413889345 -0.108846733303 -1.95310828242" energy=-12.88209049 pbc="T T T"
W        0.00000000       0.00000000       0.00000000       0.00000000      -0.00000000       0.00000000
1
Lattice="3.27646246766 0.0 0.0 -0.0280204070728 3.19471202109 0.0 1.69729517904 1.50247030155 1.63976233696" Properties=species:S:1:pos:R:3:force:R:3 config_type=slice_sample virial="-1.85527482381 0.0113107538674 -0.563139632823 0.0113107538674 -1.1719182431 0.72733703996 -0.563139632823 0.72733703996 -1.8630919741" energy=-12.86258958 pbc="T T T"
W        0.00000000       0.00000000       0.00000000       0.00000000      -0.00000000       0.00000000
1
Lattice="3.27646246766 0.0 0.0 -0.0280204070728 3.19471202109 0.0 1.69729517904 1.50247030155 1.52928625698" Properties=species:S:1:pos:R:3:force:R:3 config_type=slice_sample virial="-0.438495705366 -0.00361575180617 -0.613777524659 -0.00361575180617 0.198759943834 0.788050843661 -0.613777524659 0.788050843661 1.60262528983" energy=-12.87541243 pbc="T T T"
W        0.00000000       0.00000000       0.00000000       0.00000000       0.00000000       0.00000000
1
Lattice="3.20865962619 0.0 0.0 -0.0280204070728 3.19471202109 0.0 1.69729517904 1.50247030155 1.52928625698" Properties=species:S:1:pos:R:3:force:R:3 config_type=slice_sample virial="0.606901455714 -0.0574762589394 -1.01526806328 -0.0574762589394 0.74860262193 0.890014380367 -1.01526806328 0.890014380367 2.09722129352" energy=-12.85465045 pbc="T T T"
W        0.00000000       0.00000000       0.00000000      -0.00000000       0.00000000       0.00000000
1
Lattice="3.20865962619 0.0 0.0 -0.0657963767492 3.19471202109 0.0 1.69729517904 1.50247030155 1.52928625698" Properties=species:S:1:pos:R:3:force:R:3 config_type=slice_sample virial="0.629850865967 0.104840014187 -1.1617524653 0.104840014187 0.811561933244 0.85364584156 -1.1617524653 0.85364584156 2.10903847348" energy=-12.84169261 pbc="T T T"
W        0.00000000       0.00000000       0.00000000       0.00000000       0.00000000       0.00000000
1
Lattice="3.20865962619 0.0 0.0 -0.0657963767492 3.20639190236 0.0 1.69729517904 1.50247030155 1.52928625698" Properties=species:S:1:pos:R:3:force:R:3 config_type=slice_sample virial="0.558176944109 0.089932251668 -1.14652597558 0.089932251668 0.632201547904 0.903229459946 -1.14652597558 0.903229459946 2.02544847944" energy=-12.84122153 pbc="T T T"
W        0.00000000       0.00000000       0.00000000       0.00000000       0.00000000       0.00000000
1
Lattice="3.20865962619 0.0 0.0 -0.0657963767492 3.20639190236 0.0 1.65267454926 1.50247030155 1.52928625698" Properties=species:S:1:pos:R:3:force:R:3 config_type=slice_sample virial="0.508005009036 0.176525921385 -0.704221072808 0.176525921385 0.511106344026 0.88134143825 -0.704221072808 0.88134143825 1.99540077012" energy=-12.86822304 pbc="T T T"
W        0.00000000       0.00000000       0.00000000       0.00000000       0.00000000       0.00000000
1
Lattice="3.20865962619 0.0 0.0 -0.0657963767492 3.20639190236 0.0 1.65267454926 1.58530381828 1.52928625698" Properties=species:S:1:pos:R:3:force:R:3 config_type=slice_sample virial="0.393751149989 0.298046876321 -0.709134910859 0.298046876321 0.462164681881 0.0986759165299 -0.709134910859 0.0986759165299 1.97297888416" energy=-12.8944768 pbc="T T T"
W        0.00000000       0.00000000       0.00000000       0.00000000       0.00000000       0.00000000
1