12
Lattice="15.63295833783864 1.658125628110634 2.707707809203789 0.0 2.763542713517723 0.0 0.0 0.0 4.512846348672981" Properties=species:S:1:pos:R:3:force:R:3:REF_force:R:3 config_type=gamma_surface REF_energy=-127.5262232194436 REF_stress energy=-127.5262232194436 pbc="T T T"
W       -0.28073493      -0.74445550       0.68303118       5.20932576       2.64750911       4.86853469       5.20932576       2.64750911       4.86853469
W        5.24426133       0.86146708       0.20596849      -0.94481853      -0.13087321      -2.58339221      -0.94481853      -0.13087321      -2.58339221
W        2.50777778       1.61765273      -0.01936706       1.93621498       1.08445878       2.66497985       1.93621498       1.08445878       2.66497985
W        3.90786409      -0.12147243       2.14709800      -0.41127746       0.25246941       3.00917010      -0.41127746       0.25246941       3.00917010
W        1.35194198       0.76752874       2.54218650       1.26472867      -1.98870005      -2.03297105       1.26472867      -1.98870005      -2.03297105
W        6.47423314       1.85714113       2.45129657       0.46082371      -0.45002270      -0.98089146       0.46082371      -0.45002270      -0.98089146
W        7.74592017      -0.02105408       0.10509972       0.99026772       0.46914816      -0.82076775       0.99026772       0.46914816      -0.82076775
W       12.95369444       1.08881629      -0.43204126       0.07547712       1.40657186       2.60186002       0.07547712       1.40657186       2.60186002
W       10.43577118       1.94571772       0.03843330      -0.66871204      -0.19316121      -1.97947119      -0.66871204      -0.19316121      -1.97947119
W       11.84356388       0.15994060       2.14276158      -2.11821904      -0.64702647      -2.50935295      -2.11821904      -0.64702647      -2.50935295
W        9.11128977       0.99948893       2.13197431       0.56275968      -0.16854784       2.94511428       0.56275968      -0.16854784       2.94511428
W       14.68568807       2.64339970       1.54209776      -6.35657056      -2.28182584      -5.18281234      -6.35657056      -2.28182584      -5.18281234
12
Lattice="15.5290817998129 1.647107857259375 2.689715857813689 0.0 2.745179762098958 0.0 0.0 0.0 4.48285977635615" Properties=species:S:1:pos:R:3:force:R:3:REF_force:R:3 config_type=gamma_surface REF_energy=-128.4455553151929 REF_stress energy=-128.4455553151929 pbc="T T T"
W       -0.05549453      -0.57693875       0.39225074       4.80936538       0.22502679       4.79762909       4.80936538       0.22502679       4.79762909
W        5.32870099       0.85504453       0.16427144      -1.55617298       0.77782587      -0.66264485      -1.55617298       0.77782587      -0.66264485
W        2.75236491       1.70869256      -0.08240656      -0.66203274       0.65618798       1.73419065      -0.66203274       0.65618798       1.73419065
W        4.01846385       0.02936463       2.27915865      -0.62335979      -0.89023586       0.08912622      -0.62335979      -0.89023586       0.08912622
W        1.37785165       0.83049656       2.24314902       0.62832628      -0.10984013       1.38652216       0.62832628      -0.10984013       1.38652216
W        6.54749855       1.88162991       2.46506986      -1.54417013      -0.86221823      -3.37405854      -1.54417013      -0.86221823      -3.37405854
W        7.76489384      -0.01108369      -0.04357098       0.96419912       0.26707799       3.77722280       0.96419912       0.26707799       3.77722280
W       12.79735283       0.99369257      -0.24649032       0.44528791       0.30549615      -0.02552856       0.44528791       0.30549615      -0.02552856
W       10.26246927       1.86673249       0.03304982       0.21570102      -0.18015251      -0.71124639       0.21570102      -0.18015251      -0.71124639
W       11.45953938       0.08124253       2.19811194       0.78875837      -0.19139116      -0.77375218       0.78875837      -0.19139116      -0.77375218
W        8.96157282       0.91192874       2.28824038       1.24562050       0.44901343      -0.89436638       1.24562050       0.44901343      -0.89436638
W       14.19473634       2.40991699       1.75774536      -4.71152292      -0.44679033      -5.34309402      -4.71152292      -0.44679033      -5.34309402
53
Lattice="9.519906743220362 1.328668182405732e-07 5.753578073852857e-08 1.328668187550152e-07 9.519906548245165 -2.345306491009184e-07 5.753578112371097e-08 -2.345306498341475e-07 9.519906482100183" Properties=species:S:1:pos:R:3:force:R:3:REF_force:R:3 config_type=vacancy REF_energy=-588.2388824643131 REF_stress energy=-588.2388824643131 pbc="T T T"
W        1.56420004       1.55430942       1.54532198       0.24678149       0.33308799       0.32635530       0.24678149       0.33308799       0.32635530
W       -0.01239937       0.03668624       3.17945224       0.35913652      -0.66040339      -0.26559133       0.35913652      -0.66040339      -0.26559133
W        1.58420268       1.49739392       4.77343158      -0.11003701       1.80425786       0.14608173      -0.11003701       1.80425786       0.14608173
W       -0.00929011      -0.01683223       6.45451796       0.42397578      -0.26289114      -0.86185000       0.42397578      -0.26289114      -0.86185000
W        1.55977620       1.52422534       7.93686730       0.22591806       0.67401580       0.18595097       0.22591806       0.67401580       0.18595097
W        0.00225929       3.13869941       0.00574692       0.14677912       0.03848671       0.04463845       0.14677912       0.03848671       0.04463845
W        1.60166438       4.78486636       1.56055944      -0.08874290      -0.39761071       0.46324730      -0.08874290      -0.39761071       0.46324730
W       -0.00470065       3.16350088       3.20427552       0.42181577       0.39676701      -0.46728107       0.42181577       0.39676701      -0.46728107
W        1.61145015       4.79830493       4.74644593      -0.48139817      -1.02917733      -0.26852669      -0.48139817      -1.02917733      -0.26852669
W       -0.00243453       3.21450078       6.37087184       0.08756300      -1.03351664      -0.13591610       0.08756300      -1.03351664      -0.13591610
W        1.52774168       4.72391561       7.96243864       0.79389213       0.25081218      -0.97451416       0.79389213       0.25081218      -0.97451416
W       -0.00564559       6.37820663      -0.02004828      -0.04539286      -0.18533041       0.31879640      -0.04539286      -0.18533041       0.31879640
W        1.53473543       7.95835141       1.57853230       0.42150252      -0.10391801       0.05394624       0.42150252      -0.10391801       0.05394624
W       -0.02896171       6.37825365       3.15418150       0.99125714      -0.38553419       0.19021015       0.99125714      -0.38553419       0.19021015
W        1.55819507       7.89301884       4.74953941       0.34572080       0.63976714       0.48092245       0.34572080       0.63976714       0.48092245
W       -0.00390103       6.30970792       6.33675354      -0.19754790       0.82524437       0.44853679      -0.19754790       0.82524437       0.44853679
W        1.57400212       7.86831149       7.96318534      -0.12830951       0.82831255      -0.71791228      -0.12830951       0.82831255      -0.71791228
W        3.08885414      -0.05900380       0.00706370       0.70711300       0.78291284       0.38901938       0.70711300       0.78291284       0.38901938
W        4.75204602       1.59213678       1.51822310       0.11016551      -0.08742598       0.87357993       0.11016551      -0.08742598       0.87357993
W        3.14304096       0.01294983       3.24045072       0.08041446      -0.07814553      -1.47500499       0.08041446      -0.07814553      -1.47500499
W        4.72633380       1.61036178       4.73928365       0.74120316       0.15467812      -0.07964044       0.74120316       0.15467812      -0.07964044
W        3.26060582       0.06381635       6.38115284      -1.90129687      -1.33103380      -0.10796700      -1.90129687      -1.33103380      -0.10796700
W        4.76252668       1.51269809       7.93813433       0.18759550       1.50074331       0.14702858       0.18759550       1.50074331       0.14702858
W        3.18702384       3.20905276      -0.05301762      -0.48413252      -1.12998019       0.60590944      -0.48413252      -1.12998019       0.60590944
W        4.81121544       4.83959547       1.51032745      -0.57868978      -1.22881788       0.93169151      -0.57868978      -1.22881788       0.93169151
W        3.19648038       3.16873835       3.09261110      -0.75029063       0.15579222       0.38533430      -0.75029063       0.15579222       0.38533430
W        4.73951962       4.71733097       4.71291114       0.73881573       1.00866589       0.16875937       0.73881573       1.00866589       0.16875937
W        3.20083686       3.20128314       6.30293613      -0.87944327      -0.63617463       0.46956933      -0.87944327      -0.63617463       0.46956933
W        4.70997546       4.71773914       7.94099049       0.70625717       0.50648617      -0.82494566       0.70625717       0.50648617      -0.82494566
W        3.14595706       6.33299893      -0.05622616       0.23203217       0.31048505       0.78869027       0.23203217       0.31048505       0.78869027
W        4.76271665       7.91796135       1.65271180       0.25618419       0.58151829      -0.75882465       0.25618419       0.58151829      -0.75882465
W        3.19085451       6.39381199       3.13469303      -0.21689558      -0.61721099       0.05475744      -0.21689558      -0.61721099       0.05475744
W        4.72028852       8.02807147       4.75621536       1.19748875      -1.47304444       0.50143878       1.19748875      -1.47304444       0.50143878
W        3.17210013       6.33732721       6.26770556      -0.07460012       0.46601314       1.08703575      -0.07460012       0.46601314       1.08703575
W        4.72080791       7.95031114       8.00599911       0.59610900      -0.61293536      -1.15659253       0.59610900      -0.61293536      -1.15659253
W        6.40956550      -0.02939768       0.05155817      -0.70818376       0.20109400      -0.08414142      -0.70818376       0.20109400      -0.08414142
W        7.99983452       1.59474096       1.57524359      -0.78712779      -0.07743857       0.26216469      -0.78712779      -0.07743857       0.26216469
W        6.35587572       0.03572137       3.22615094      -0.04323702      -0.49592646      -1.02528977      -0.04323702      -0.49592646      -1.02528977
W        7.93634060       1.57450106       4.74859509      -0.03078941       0.82995321       0.58907827      -0.03078941       0.82995321       0.58907827
W        6.36411585       0.08793656       6.36721901       0.04055315      -1.67009610       0.04306783       0.04055315      -1.67009610       0.04306783
W        7.96514706       1.50307558       8.00226014      -0.11197494       1.05887120      -0.53367150      -0.11197494       1.05887120      -0.53367150
W        6.37215411       3.15019663      -0.02638920      -0.24311966      -0.03668026       0.33822498      -0.24311966      -0.03668026       0.33822498
W        7.97739696       4.80236428       1.56149329      -0.43972355      -0.93553384       0.49552292      -0.43972355      -0.93553384       0.49552292
W        6.31942621       3.17972026       3.12919788       0.70986105      -0.06607046       0.06332479       0.70986105      -0.06607046       0.06332479
W        7.94322618       4.77487372       4.79970327      -0.27230073      -0.41402064      -0.44814279      -0.27230073      -0.41402064      -0.44814279
W        6.35556952       3.14964170       6.32551575      -0.04427575       0.36495704       0.39827220      -0.04427575       0.36495704       0.39827220
W        7.88123532       4.76975763       7.98790812       0.52916437      -0.54880361      -1.18407128       0.52916437      -0.54880361      -1.18407128
W        6.34969056       6.33178195      -0.02886106      -0.18067659       0.64859189       0.69416312      -0.18067659       0.64859189       0.69416312
W        7.99821296       7.94728313       1.56423353      -0.66644685       0.33655218       0.31353409      -0.66644685       0.33655218       0.31353409
W        6.45354162       6.31019091       3.16551030      -1.60083337       1.07870437       0.25747440      -1.60083337       1.07870437       0.25747440
W        7.98581732       7.97166397       4.76611856      -1.23579018      -0.57071603       0.50324236      -1.23579018      -0.57071603       0.50324236
W        6.29502286       6.35033056       6.39217386       0.44580189       0.41301550      -0.80037750       0.44580189       0.41301550      -0.80037750
W        7.89365929       7.94091486       7.99602578       0.55815528      -0.12134943      -0.84930836       0.55815528      -0.12134943      -0.84930836
12
Lattice="15.58119319383914 1.652635107686423 0.4497903047518427 0.0 2.754391842810706 0.0 0.0 0.0 4.497903047518427" Properties=species:S:1:pos:R:3:force:R:3:REF_force:R:3 config_type=gamma_surface REF_energy=-131.4940736504432 REF_stress energy=-131.4940736504432 pbc="T T T"
W        0.02670600      -0.28892209      -0.13445776       0.18005783      -0.41523734      -0.61996313       0.18005783      -0.41523734      -0.61996313
W        5.17281295       0.96520401      -0.06626510       0.74018602      -0.51665382       0.88344183       0.74018602      -0.51665382       0.88344183
W        2.64584256       1.66570307       0.11978919      -0.34397613       1.05573897      -2.66761803      -0.34397613       1.05573897      -2.66761803
W        3.86811658       0.02542239       2.30998276       1.09581556      -0.69704471      -0.60654480       1.09581556      -0.69704471      -0.60654480
W        1.40627147       0.78312677       2.14330404      -1.31341988       0.23244369       1.96745626      -1.31341988       0.23244369       1.96745626
W        6.49676828       1.89692936       2.12855883      -0.40336116      -0.32389002       2.73486238      -0.40336116      -0.32389002       2.73486238
W        7.76299793       0.03181325       0.13464279       0.91249223      -0.10029331      -2.56233717       0.91249223      -0.10029331      -2.56233717
W       12.86200622       1.05611355       0.07117140       1.73142907      -0.51332950      -1.75354476       1.73142907      -0.51332950      -1.75354476
W       10.41983143       1.80403058      -0.06739553      -1.32002936       0.84215932       0.53979678      -1.32002936       0.84215932       0.53979678
W       11.65699263       0.12632290       2.06789135      -0.03812614      -0.67823856       3.51202085      -0.03812614      -0.67823856       3.51202085
W        9.14597631       0.88944281       2.35018196      -1.38856043       0.62271534      -1.47848750      -1.38856043       0.62271534      -1.47848750
W       14.23224026       2.06238080       2.43630523       0.14749238       0.49162993       0.05091729       0.14749238       0.49162993       0.05091729
12
Lattice="13.49370914255528 1.349370914255528 0.9541493237197908 0.0 4.497903047518427 0.0 0.0 0.0 3.180497745732636" Properties=species:S:1:pos:R:3:force:R:3:REF_force:R:3 config_type=gamma_surface REF_energy=-129.9189756240521 REF_stress energy=-129.9189756240521 pbc="T T T"
W        0.19095956       0.02124090       0.08009237      -2.29927296       0.18030278      -0.76028573      -2.29927296       0.18030278      -0.76028573
W        2.27741879       2.33282950      -0.19330231       1.15447652      -0.26754455       2.39980504       1.15447652      -0.26754455       2.39980504
W        2.39817301       0.07553473       1.39541884      -2.76657798      -0.78051409       2.50580638      -2.76657798      -0.78051409       2.50580638
W        0.22457884       2.23210093       1.66606289      -3.11902702       0.84625953      -0.91761514      -3.11902702       0.84625953      -0.91761514
W        4.38867324       0.13429320       0.02504325       3.82720246      -2.70907256      -1.74140964       3.82720246      -2.70907256      -1.74140964
W        6.75936829       2.21915777      -0.11268374      -1.32424924       0.35861679       1.61501066      -1.32424924       0.35861679       1.61501066
W        6.75862260      -0.02705952       1.43751408      -1.31425626      -0.24557041       2.02621014      -1.31425626      -0.24557041       2.02621014
W        4.46633040       2.16776281       1.67417303       1.69426748       3.03241695      -2.03312752       1.69426748       3.03241695      -2.03312752
W        8.98506351      -0.00173000       0.21568102      -1.57852115      -0.87271124      -2.43325423      -1.57852115      -0.87271124      -2.43325423
W       11.02354284       2.28104113      -0.00438429       3.05960502      -1.50741409       0.67807840       3.05960502      -1.50741409       0.67807840
W       11.04519562      -0.10935015       1.57427536       3.42670319       1.02528131       0.68876238       3.42670319       1.02528131       0.68876238
W        8.95061897       2.16788789       1.78360272      -0.76035006       0.93994958      -2.02798074      -0.76035006       0.93994958      -2.02798074
12
Lattice="15.58119319383914 1.377195926405353 4.048112742766584 0.0 2.754391842810706 0.0 0.0 0.0 4.497903047518427" Properties=species:S:1:pos:R:3:force:R:3:REF_force:R:3 config_type=gamma_surface REF_energy=-132.4369802395922 REF_stress energy=-132.4369802395922 pbc="T T T"
W       -0.02340510      -0.29040044       0.17383459       0.83556288      -0.36071122      -0.86835166       0.83556288      -0.36071122      -0.86835166
W        5.25360720       0.93895041       0.04354966      -0.62873487      -0.25290651      -0.92647836      -0.62873487      -0.25290651      -0.92647836
W        2.60048266       1.75502353       0.06273522       0.46750031       0.03843957      -1.23159414       0.46750031       0.03843957      -1.23159414
W        3.94925992       0.01180388       2.20445692      -0.19324851      -0.37271332       1.50292317      -0.19324851      -0.37271332       1.50292317
W        1.33975671       0.77548265       2.26487854       0.86036369       0.38080602       1.30339721       0.86036369       0.38080602       1.30339721
W        6.56133339       1.85878199       2.27086818      -1.13561403      -0.12831982      -0.56113058      -1.13561403      -0.12831982      -0.56113058
W        7.79996601      -0.00921794      -0.05859786       0.08304301       0.63313182       1.22449417       0.08304301       0.63313182       1.22449417
W       12.86560622       1.01489444      -0.06799608       0.40854604       0.13368044      -0.53772564       0.40854604       0.13368044      -0.53772564
W       10.36351552       1.94201811       0.12429260      -0.26061576      -0.46044946      -2.39224041      -0.26061576      -0.46044946      -2.39224041
W       11.66966464       0.13498240       2.22365673      -0.39637260      -0.53030750       0.78181483      -0.39637260      -0.53030750       0.78181483
W        9.04155225       0.95736793       2.23473211       1.05458611       0.17944590       0.75528802       1.05458611       0.17944590       0.75528802
W       14.27522321       1.92788044       2.01729854      -1.09501626       0.73990407       0.94960339      -1.09501626       0.73990407       0.94960339
12
Lattice="13.49370914255528 2.698741828511056 0.6360995491465272 0.0 4.497903047518427 0.0 0.0 0.0 3.180497745732636" Properties=species:S:1:pos:R:3:force:R:3:REF_force:R:3 config_type=gamma_surface REF_energy=-126.3405290040719 REF_stress energy=-126.3405290040719 pbc="T T T"
W        0.03422219       0.48444830      -0.06038010      -1.85903153      -1.57808156      -0.94504272      -1.85903153      -1.57808156      -0.94504272
W        2.33834472       2.07913748      -0.36191696      -1.36807997       4.97317748       2.18514493      -1.36807997       4.97317748       2.18514493
W        2.33242567       0.21386824       1.20720733      -1.18219144      -3.93168025       2.37360259      -1.18219144      -3.93168025       2.37360259
W       -0.01165941       2.54779341       1.52522240      -0.73065245       1.29196932      -0.28037351      -0.73065245       1.29196932      -0.28037351
W        4.63960249       0.23570022       0.29155919       0.48532177      -3.35055226      -2.35776013       0.48532177      -3.35055226      -2.35776013
W        6.83530267       2.25492535      -0.12099681      -0.74631224      -4.04228334       2.79559038      -0.74631224      -4.04228334       2.79559038
W        6.91649981      -0.36451866       1.45114772      -2.45089076       5.12559844       2.85179512      -2.45089076       5.12559844       2.85179512
W        4.58850242       2.20524835       1.91187913       0.80323651       2.31363729      -3.45907419       0.80323651       2.31363729      -3.45907419
W        8.93195389      -0.17415561       0.14415072       0.78820255       0.51097962      -2.15672842       0.78820255       0.51097962      -2.15672842
W       10.95791828       2.07892348       0.11099697       3.30740878       0.12374809       0.46285123       3.30740878       0.12374809       0.46285123
W       10.94160549      -0.13119372       1.69186618       3.54739864      -1.06454862       0.39128371       3.54739864      -1.06454862       0.39128371
W        8.96382746       2.06353235       1.75075743      -0.59440986      -0.37196422      -1.86128900      -0.59440986      -0.37196422      -1.86128900
12
Lattice="13.44857932906845 0.0 0.0 0.0 4.48285977635615 0.0 0.0 0.0 3.169860554910782" Properties=species:S:1:pos:R:3:force:R:3:REF_force:R:3 config_type=gamma_surface REF_energy=-125.7805212269122 REF_stress energy=-125.7805212269122 pbc="T T T"
W        0.03357626      -0.05012256       0.21620846       1.17775522       0.69344731      -3.18982938       1.17775522       0.69344731      -3.18982938
W        2.36755112       2.20208932      -0.19215455      -6.11196129       0.09246765       4.68891451      -6.11196129       0.09246765       4.68891451
W        2.24135693      -0.06985024       1.46011162      -0.28130754       0.33316161       2.48153702      -0.28130754       0.33316161       2.48153702
W       -0.04472723       2.30879076       1.79405591       2.71033781      -0.96156664      -3.05223881       2.71033781      -0.96156664      -3.05223881
W        4.47523008       0.06865202       0.34235566      -0.53835432      -2.11402853      -3.42766282      -0.53835432      -2.11402853      -3.42766282
W        6.62150388       2.42133488      -0.18664536       2.13488863      -2.95597228       2.85070075       2.13488863      -2.95597228       2.85070075
W        6.65971972      -0.11546339       1.44367449       1.44743430       2.79112123       2.14323229       1.44743430       2.79112123       2.14323229
W        4.36126733       2.10272217       1.93837053       4.43183103       2.18250191      -4.86916387       4.43183103       2.18250191      -4.86916387
W        9.02658267      -0.07401866       0.22282480      -2.37149928       2.02126719      -2.96075621      -2.37149928       2.02126719      -2.96075621
W       11.20128997       2.12417963      -0.44192700       1.26924749       2.44465482       4.03571625       1.26924749       2.44465482       4.03571625
W       11.23892664       0.12625943       1.10480361       0.21338231      -2.35331540       4.49033293       0.21338231      -2.35331540       4.49033293
W        9.06061934       2.40400600       1.80790353      -4.08175436      -2.17373887      -3.19078264      -4.08175436      -2.17373887      -3.19078264
12
Lattice="13.49370914255528 0.8995806095036853 1.590248872866318 0.0 4.497903047518427 0.0 0.0 0.0 3.180497745732636" Properties=species:S:1:pos:R:3:force:R:3:REF_force:R:3 config_type=gamma_surface REF_energy=-130.0121323423518 REF_stress energy=-130.0121323423518 pbc="T T T"
W        0.11679071      -0.08339034      -0.11665258      -0.68834718       4.28088777       0.69931944      -0.68834718       4.28088777       0.69931944
W        2.36218634       2.16445591       0.01902376      -2.12568474       0.85675366       0.21680568      -2.12568474       0.85675366       0.21680568
W        2.27904958      -0.02165517       1.59420545       0.21837640       0.23062744       0.28775547       0.21837640       0.23062744       0.28775547
W        0.08269741       2.54251879       1.51297080      -0.17781235      -4.09075232       0.23769126      -0.17781235      -4.09075232       0.23769126
W        4.43869819      -0.10084055       0.17826911       1.59802970       0.95047703      -1.68536458       1.59802970       0.95047703      -1.68536458
W        6.78251269       2.26037252      -0.13922691      -1.31499671      -0.15753012       0.93108469      -1.31499671      -0.15753012       0.93108469
W        6.83010662      -0.03403873       1.42482452      -2.86456995       0.20655447       1.69761823      -2.86456995       0.20655447       1.69761823
W        4.37744039       2.22385722       1.71681311       3.19966030      -0.69566404      -0.96188381       3.19966030      -0.69566404      -0.96188381
W        8.87213117       0.11749852      -0.00453562       2.29274943      -2.59325386      -0.50331340       2.29274943      -2.59325386      -0.50331340
W       11.17557671       2.41854839       0.08746970       0.12718469      -3.79339929      -0.12056680       0.12718469      -3.79339929      -0.12056680
W       11.16839203      -0.15797471       1.69158260      -0.04490170       2.80617485      -0.70833112      -0.04490170       2.80617485      -0.70833112
W        8.98296387       2.16435733       1.57674926      -0.21968788       1.99912441      -0.09081507      -0.21968788       1.99912441      -0.09081507
12
Lattice="15.58119319383914 0.5508783725621414 3.598322438014741 0.0 2.754391842810706 0.0 0.0 0.0 4.497903047518427" Properties=species:S:1:pos:R:3:force:R:3:REF_force:R:3 config_type=gamma_surface REF_energy=-130.6823103207425 REF_stress energy=-130.6823103207425 pbc="T T T"
W       -0.22776913      -0.56661857       0.58389951       3.80051137       2.94569045      -1.78710365       3.80051137       2.94569045      -1.78710365
W        5.38006762       0.99556002       0.01043688      -2.95593865      -0.46879334       0.22519808      -2.95593865      -0.46879334       0.22519808
W        2.60025768       1.85025498       0.51734583      -0.01669543       0.10074173      -1.61718766      -0.01669543       0.10074173      -1.61718766
W        3.93557222       0.05223476       2.51176886       0.04532537       0.04861659       0.16388290       0.04532537       0.04861659       0.16388290
W        1.23390547       1.01302382       2.80150065       2.37631961      -1.85422137      -0.17573431       2.37631961      -1.85422137      -0.17573431
W        6.58966541       1.88213801       2.11739501      -2.13496437      -0.34381643       0.37462448      -2.13496437      -0.34381643       0.37462448
W        7.76415085      -0.01097820      -0.26832930       1.45861152       0.15793856       3.37499837       1.45861152       0.15793856       3.37499837
W       13.00647720       0.95245462      -0.45409547      -2.06880725       0.52437079       0.62192818      -2.06880725       0.52437079       0.62192818
W       10.38683248       1.80131447      -0.16773017      -0.48253541       0.31044944      -1.47967875      -0.48253541       0.31044944      -1.47967875
W       11.69421549       0.07022283       1.81989881       0.09573238      -0.38269958       1.83599747       0.09573238      -0.38269958       1.83599747
W        8.96615128       0.85725996       2.19768660       3.31791850       0.82222622      -2.93371383       3.31791850       0.82222622      -2.93371383
W       14.36703606       2.12070071       1.82393197      -3.43547765      -1.86050306       1.39678871      -3.43547765      -1.86050306       1.39678871
1
Lattice="3.197751437065697 0.0 0.0 0.5859924652751376 3.138744882506713 0.0 1.79283871851888 1.647954427324783 1.61998176516355" Properties=species:S:1:pos:R:3:force:R:3:REF_force:R:3 config_type=slice_sample virial="-0.1534330662568955 -2.763705131770609 1.420673854376332 -2.763705131770609 0.950089155263631 -1.538428966597849 1.420673854376332 -1.538428966597849 0.5237281814644255" REF_energy=-10.86449989394396 REF_stress energy=-10.86449989394396 pbc="T T T"
W        0.00000000       0.00000000       0.00000000       0.00000000       0.00000000       0.00000000       0.00000000       0.00000000       0.00000000
47
Lattice="13.49371004255535 2.698742208511086 0.6361000491465659 0.0 8.995804695036744 0.0 0.0 0.0 6.360995491465272" Properties=species:S:1:pos:R:3:force:R:3:REF_force:R:3 config_type=gamma_surface_vacancy REF_energy=-515.5229439099203 REF_stress energy=-515.5229439099203 pbc="T T T"
W        2.26258717       2.25794317      -0.03744600       0.46911419      -0.82369687       0.47713632       0.46911419      -0.82369687       0.47713632
W        2.26136917      -0.00316900       1.56567512      -0.10829175       0.08909373      -0.33782826      -0.10829175       0.08909373      -0.33782826
W        0.09955601       2.25491517       1.56432112      -0.48449984      -0.31436209       0.82550489      -0.48449984      -0.31436209       0.82550489
W        4.48990735       0.02749900       0.00383700       0.14760434      -0.64121686      -0.17103310       0.14760434      -0.64121686      -0.17103310
W        6.74934552       2.23796217      -0.00037300      -0.13091843       0.21544161      -0.06194598      -0.13091843       0.21544161      -0.06194598
W        6.70296552       0.00269600       1.63075113       0.09355861      -0.09162002      -0.74215647       0.09355861      -0.09162002      -0.74215647
W        4.49683835       2.21964817       1.58429212       0.30510873       0.71978490      -0.15956935       0.30510873       0.71978490      -0.15956935