12
Lattice="15.63295833783864 1.658125628110634 0.9025692697345962 0.0 2.763542713517723 0.0 0.0 0.0 4.512846348672981" Properties=species:S:1:pos:R:3:force:R:3:REF_force:R:3 config_type=gamma_surface REF_energy=-130.8582138909514 REF_stress energy=-130.8582138909514 pbc="T T T"
W       -0.06863159      -0.22990106      -0.56364004       2.16315499      -1.02348179       4.28035228       2.16315499      -1.02348179       4.28035228
W        5.24196307       0.83483619      -0.03251144      -0.30103723       0.55189379       0.79102717      -0.30103723       0.55189379       0.79102717
W        2.64908788       1.83532749       0.09751490       0.46557848      -0.29503807      -2.06289231       0.46557848      -0.29503807      -2.06289231
W        3.97406307      -0.02939322       2.37912584      -0.60191845      -0.10730876      -1.74132465      -0.60191845      -0.10730876      -1.74132465
W        1.39804824       0.89783131       2.07077970       0.52802748       0.49967716       0.25179498       0.52802748       0.49967716       0.25179498
W        6.51069147       1.76967630       2.14325540      -0.08138382       0.68722145       1.98124855      -0.08138382       0.68722145       1.98124855
W        7.76654098       0.01641171       0.02787585       0.58220631      -0.01604860      -1.72945256       0.58220631      -0.01604860      -1.72945256
W       12.99420998       0.91056367       0.11896218      -1.83893986      -0.28049920       1.68446966      -1.83893986      -0.28049920       1.68446966
W       10.34512342       1.97263414      -0.00929475       0.38720721      -0.67512608       0.24847601       0.38720721      -0.67512608       0.24847601
W       11.68148207       0.06809509       2.28542733       0.01984737       0.04847850       0.31638884       0.01984737       0.04847850       0.31638884
W        9.05512798       1.03184814       2.21807617       0.62913692      -0.61582159       0.59052622       0.62913692      -0.61582159       0.59052622
W       14.43356430       1.97624113       2.80296794      -1.95187940       1.22605319      -4.61061419      -1.95187940       1.22605319      -4.61061419
12
Lattice="13.53853905601894 3.610277078938385 1.914638547929417 0.0 4.512846348672981 0.0 0.0 0.0 3.191064256549029" Properties=species:S:1:pos:R:3:force:R:3:REF_force:R:3 config_type=gamma_surface REF_energy=-128.5415365887711 REF_stress energy=-128.5415365887711 pbc="T T T"
W        0.17483621       0.39448035      -0.06106522       0.17398148      -6.20146986       1.08515781       0.17398148      -6.20146986       1.08515781
W        2.54199098       2.28622143       0.12865165      -4.12415322      -0.14909243      -1.48450161      -4.12415322      -0.14909243      -1.48450161
W        2.52469375      -0.04904590       1.71718778      -4.32025563       0.47601328      -1.31256968      -4.32025563       0.47601328      -1.31256968
W        0.12529237       2.16685236       1.58431095      -0.17713977       4.36685709      -0.22828295      -0.17713977       4.36685709      -0.22828295
W        4.46167624       0.04690412      -0.02498198       4.10682067      -1.70487927       0.96917533       4.10682067      -1.70487927       0.96917533
W        6.78495393       2.23488552       0.01625096      -2.89017225      -0.93261377      -1.04854906      -2.89017225      -0.93261377      -1.04854906
W        6.76321803      -0.08416829       1.59358792      -2.45906263       0.99313324      -0.71984981      -2.45906263       0.99313324      -0.71984981
W        4.48527761       2.16863676       1.55695602       3.83582909       1.57596431       1.35324682       3.83582909       1.57596431       1.35324682
W        8.78949226      -0.11016518      -0.14522789       2.69269302       1.57072331       1.33621705       2.69269302       1.57072331       1.33621705
W       11.10052937       2.08188415       0.08465253       0.00311329       3.24089977      -0.80799158       0.00311329       3.24089977      -0.80799158
W       11.12843799       0.15393589       1.65972490       0.48220874      -2.20379934      -0.37595326       0.48220874      -2.20379934      -0.37595326
W        8.81229657       2.24811783       1.46314515       2.67613720      -1.03173632       1.23390095       2.67613720      -1.03173632       1.23390095
12
Lattice="15.63295833783864 2.210834170814179 3.610277078938385 0.0 2.763542713517723 0.0 0.0 0.0 4.512846348672981" Properties=species:S:1:pos:R:3:force:R:3:REF_force:R:3 config_type=gamma_surface REF_energy=-130.154348096632 REF_stress energy=-130.154348096632 pbc="T T T"
W        0.09159479       0.38755844       0.37219542      -1.45202822      -1.02519248       3.41340325      -1.45202822      -1.02519248       3.41340325
W        5.25344635       1.19284659       0.49293689      -1.70303910      -1.25450348      -2.33889035      -1.70303910      -1.25450348      -2.33889035
W        2.61700841       2.06677046       0.61509863       0.65620201       1.19801712       0.01325561       0.65620201       1.19801712       0.01325561
W        3.96524371       0.33482256       2.89400271      -0.67210034      -0.84186046      -1.33813567      -0.67210034      -0.84186046      -1.33813567
W        1.32053679       1.29681567       2.87658358       0.36470750      -0.65397353      -2.11960168       0.36470750      -0.65397353      -2.11960168
W        6.52030238       1.90602158       2.37724252       0.54825257      -0.05080111       0.94282469       0.54825257      -0.05080111       0.94282469
W        7.79030347      -0.24528298      -0.14419746       0.21921581       0.85518407      -0.40144755       0.21921581       0.85518407      -0.40144755
W       13.03286003       0.49262160      -0.44475733       0.08940855       2.08543693      -0.68187516       0.08940855       2.08543693      -0.68187516
W       10.30708921       1.60462817      -0.79461738       1.45731263       0.08335340       3.27527724       1.45731263       0.08335340       3.27527724
W       11.69861325      -0.06173339       1.62399492      -0.29398787      -2.44658422       0.57105657      -0.29398787      -2.44658422       0.57105657
W        9.13111249       0.57078642       1.72783822      -0.35601348       1.58281182       0.85387562      -0.35601348       1.58281182       0.85387562
W       14.25316002       1.50831579       1.94221834       1.14206995       0.46811194      -2.18974257       1.14206995       0.46811194      -2.18974257
53
Lattice="9.496103003690953 0.0 0.0 0.0 9.496103003690953 0.0 0.0 0.0 9.496103003690953" Properties=species:S:1:pos:R:3:force:R:3:REF_force:R:3 config_type=vacancy REF_energy=-588.6422310543276 REF_stress energy=-588.6422310543276 pbc="T T T"
W        1.58968709       1.62111677       1.57529356      -0.29785565      -0.67286146       0.08648694      -0.29785565      -0.67286146       0.08648694
W        0.01584344      -0.01163713       3.19566309      -0.19829250       0.27681861      -0.91269428      -0.19829250       0.27681861      -0.91269428
W        1.54630180       1.63432620       4.77353667       0.43465231      -0.74802267      -0.06774702       0.43465231      -0.74802267      -0.06774702
W       -0.01846573       0.01206195       6.39652695       0.24970307      -0.30611798      -0.19222488       0.24970307      -0.30611798      -0.19222488
W        1.59299690       1.52282013       7.99858556      -0.61738742       0.57401601      -0.77238544      -0.61738742       0.57401601      -0.77238544
W        0.00051397       3.16308733      -0.00623596       0.15368965      -0.36473826       0.45375662       0.15368965      -0.36473826       0.45375662
W        1.52044130       4.74713236       1.55524505       0.90264746       0.26499070       0.58938807       0.90264746       0.26499070       0.58938807
W        0.01409555       3.12906492       3.23864358      -0.14038282       0.53040173      -1.42077770      -0.14038282       0.53040173      -1.42077770
W        1.60318154       4.80552561       4.75483804      -0.26595090      -0.55284871      -0.15295649      -0.26595090      -0.55284871      -0.15295649
W        0.00465503       3.14732102       6.39020818       0.05807718       0.19855413      -0.46757133       0.05807718       0.19855413      -0.46757133
W        1.56893577       4.72728149       7.90831344       0.12951832       0.47823393      -0.09022470       0.12951832       0.47823393      -0.09022470
W       -0.00201142       6.41195342      -0.01612978       0.03713366      -0.87315670       0.15114729       0.03713366      -0.87315670       0.15114729
W        1.56434675       7.95855844       1.53403988      -0.10357437      -0.23484163       0.63516775      -0.10357437      -0.23484163       0.63516775
W        0.01688646       6.32264657       3.15870439      -0.18034528       0.15092198      -0.30052704      -0.18034528       0.15092198      -0.30052704
W        1.60995002       7.98415669       4.74387983      -0.49396202      -1.00303680       0.30340455      -0.49396202      -1.00303680       0.30340455
W        0.02353204       6.35604857       6.31215813      -0.10676827      -0.36579009       0.47239689      -0.10676827      -0.36579009       0.47239689
W        1.58445571       7.91602457       7.95688930      -0.53548560       0.29956459      -0.48758339      -0.53548560       0.29956459      -0.48758339
W        3.16582655      -0.01449830      -0.01038732      -0.40149659       0.61276340       0.44343271      -0.40149659       0.61276340       0.44343271
W        4.71283626       1.59506789       1.54994646       0.84924129      -0.19440813       0.49244338       0.84924129      -0.19440813       0.49244338
W        3.18238047      -0.07859199       3.19545317      -0.21706942       1.63748625      -0.80445327      -0.21706942       1.63748625      -0.80445327
W        4.69474840       1.59822856       4.74565495       0.95204909      -0.63226118      -0.25150135       0.95204909      -0.63226118      -0.25150135
W        3.13133218       0.03671266       6.30512877       0.36557545      -0.14894116       0.84904432       0.36557545      -0.14894116       0.84904432
W        4.71857921       1.59757996       7.90281651       0.61219990      -0.32481689      -0.30395747       0.61219990      -0.32481689      -0.30395747
W        3.21040254       3.21696607      -0.06623443      -0.86352972      -1.06117784       1.05593127      -0.86352972      -1.06117784       1.05593127
W        4.72336733       4.73771551       1.56498716       0.56394398       0.33610853       0.24467723       0.56394398       0.33610853       0.24467723
W        3.18146675       3.13662094       3.14217727      -0.41009500       0.47576706      -0.20119357      -0.41009500       0.47576706      -0.20119357
W        4.75606078       4.72021274       4.72054152       0.22095664       0.55813469       0.31753699       0.22095664       0.55813469       0.31753699
W        3.15094967       3.18505470       6.27980158       0.00837025      -0.10357826       0.75274585       0.00837025      -0.10357826       0.75274585
W        4.72720530       4.70370909       7.88221794       0.58380972       0.96131877       0.08904139       0.58380972       0.96131877       0.08904139
W        3.17068505       6.31723268       0.01195380      -0.40586162       0.11278788       0.14191951      -0.40586162       0.11278788       0.14191951
W        4.71826681       7.94042821       1.57823137       0.65326893      -0.55989073       0.37979067       0.65326893      -0.55989073       0.37979067
W        3.18266222       6.34179563       3.21077469      -0.35631025      -0.34129264      -0.89189963      -0.35631025      -0.34129264      -0.89189963
W        4.78048069       7.91631377       4.82552913      -0.30784833      -0.14071594      -1.06852935      -0.30784833      -0.14071594      -1.06852935
W        3.16315319       6.37929387       6.35503944      -0.08784132      -0.76559336      -0.15175925      -0.08784132      -0.76559336      -0.15175925
W        4.66651113       7.89050191       7.95240992       1.42682713       0.33679419      -0.67954667       1.42682713       0.33679419      -0.67954667
W        6.35096809      -0.00245269      -0.04486319      -0.36627240       0.05345015       0.42149193      -0.36627240       0.05345015       0.42149193
W        7.86719558       1.54409068       1.51078796       1.01360255       0.14861444       0.92240030       1.01360255       0.14861444       0.92240030
W        6.36565889      -0.03316699       3.17535361      -0.50995791       0.51247265      -0.47300483      -0.50995791       0.51247265      -0.47300483
W        7.91146172       1.56739314       4.77140603       0.11213652      -0.24697596      -0.23637770       0.11213652      -0.24697596      -0.23637770
W        6.32791486      -0.00218425       6.27468185      -0.14068217      -0.08309104       1.28227120      -0.14068217      -0.08309104       1.28227120
W        7.90095747       1.54471463       7.95545039       0.42109672       0.03800629      -0.56450992       0.42109672       0.03800629      -0.56450992
W        6.40506801       3.21930549      -0.04522428      -1.42229208      -0.97778137       0.68963864      -1.42229208      -0.97778137       0.68963864
W        7.88956330       4.73725416       1.55918005       0.42490333       0.33094756       0.52604832       0.42490333       0.33094756       0.52604832
W        6.39408934       3.12536797       3.19425541      -0.93185019       0.44871994      -1.01210779      -0.93185019       0.44871994      -1.01210779
W        7.94557798       4.74224147       4.74032750      -0.26532707      -0.03645086       0.17274086      -0.26532707      -0.03645086       0.17274086
W        6.36162796       3.14212802       6.30691150      -0.52944479       0.19138321       0.39797529      -0.52944479       0.19138321       0.39797529
W        7.91603049       4.73476508       7.89368639       0.16212555       0.28433268       0.11391851       0.16212555       0.28433268       0.11391851
W        6.34615289       6.36746369       0.01286355      -0.43137067      -0.54809501      -0.08540656      -0.43137067      -0.54809501      -0.08540656
W        7.94020033       7.93375365       1.54713056      -0.16865517       0.06941754       0.35881308      -0.16865517       0.06941754       0.35881308
W        6.30884964       6.35656432       3.16361492       0.49439376      -0.67756331       0.00186225       0.49439376      -0.67756331       0.00186225
W        7.93606470       7.84609255       4.75227635      -0.20274731       1.02079228      -0.14377564      -0.20274731       1.02079228      -0.14377564
W        6.33140366       6.30529418       6.39006171      -0.12141089       0.05563247      -1.01114637      -0.12141089       0.05563247      -1.01114637
W        7.89127675       7.86586957       7.88822034       0.25014526       1.00561632       0.39838985       0.25014526       1.00561632       0.39838985
1
Lattice="3.156197753855162 0.0 0.0 0.007998320617968811 3.17561895535569 0.0 1.590312902871265 1.615092454785791 1.588747762750339" Properties=species:S:1:pos:R:3:force:R:3:REF_force:R:3 config_type=slice_sample virial="0.4574554901546634 -0.03245256971541454 -0.07282805091532661 -0.03245256971541454 0.2508613794736661 -0.2528795110814785 -0.07282805091532661 -0.2528795110814785 0.2353186253892473" REF_energy=-11.19044920040506 REF_stress energy=-11.19044920040506 pbc="T T T"
W        0.00000000       0.00000000       0.00000000       0.00000000       0.00000000       0.00000000       0.00000000       0.00000000       0.00000000
12
Lattice="15.58119319383914 0.0 2.698741828511056 0.0 2.754391842810706 0.0 0.0 0.0 4.497903047518427" Properties=species:S:1:pos:R:3:force:R:3:REF_force:R:3 config_type=gamma_surface REF_energy=-123.8140942454338 REF_stress energy=-123.8140942454338 pbc="T T T"
W        0.08363741      -0.06331775       0.98064737      -1.31843436       0.83856593      -0.62708049      -1.31843436       0.83856593      -0.62708049
W        5.03167262       1.25159352       0.38768803       6.60119822      -3.38837230       8.91719209       6.60119822      -3.38837230       8.91719209
W        2.66059911       1.73319809       1.09589463      -2.00417333       0.96108038      -0.54123589      -2.00417333       0.96108038      -0.54123589
W        4.25872621      -0.19941982       3.32720188      -8.33692044       2.56093612     -10.34827836      -8.33692044       2.56093612     -10.34827836
W        1.34762007       0.92628177       3.30320458      -0.36851067      -0.70703804      -0.19497760      -0.36851067      -0.70703804      -0.19497760
W        6.49790116       2.21632276       2.18610927       1.54735428      -1.23523110       0.87894921       1.54735428      -1.23523110       0.87894921
W        7.76924127      -0.30610111      -0.14607710      -1.46321811       0.73925749      -2.56142997      -1.46321811       0.73925749      -2.56142997
W       12.81362361       0.98998925      -1.07180137       2.12797048       0.32466432       0.96370789       2.12797048       0.32466432       0.96370789
W       10.27291702       2.08929136      -0.65511637       0.96781326      -2.18574486      -2.22711467       0.96781326      -2.18574486      -2.22711467
W       11.82241126       0.04849363       1.22006554      -4.08644904       0.78575326       1.84466817      -4.08644904       0.78575326       1.84466817
W        9.08896333       0.38237144       1.64734730       1.04774490       2.43283241       3.20449522       1.04774490       2.43283241       3.20449522
W       14.04924955       1.94886425       1.21854542       5.28562480      -1.12670361       0.69110441       5.28562480      -1.12670361       0.69110441
12
Lattice="15.63295833783864 1.105417085407089 2.707707809203789 0.0 2.763542713517723 0.0 0.0 0.0 4.512846348672981" Properties=species:S:1:pos:R:3:force:R:3:REF_force:R:3 config_type=gamma_surface REF_energy=-130.0200043394725 REF_stress energy=-130.0200043394725 pbc="T T T"
W       -0.04308986      -0.26561592       0.98215350       1.53210129      -1.69531550      -0.79203262       1.53210129      -1.69531550      -0.79203262
W        5.14951626       0.87801219       0.02750502       3.28543398      -1.31035397       2.37267723       3.28543398      -1.31035397       2.37267723
W        2.79685012       1.48554897       0.56311764      -3.15353424       0.69218608       0.59886313      -3.15353424       0.69218608       0.59886313
W        3.93474457      -0.21509195       2.64683067      -0.94902930       0.04480721      -1.74347868      -0.94902930       0.04480721      -1.74347868
W        1.33095737       0.45571245       3.13427356      -0.34395802       1.37614384      -1.22756435      -0.34395802       1.37614384      -1.22756435
W        6.41981788       1.76244434       2.19166403       1.59700406       0.56775106       0.05356878       1.59700406       0.56775106       0.05356878
W        7.88869075      -0.01204745      -0.20040111      -0.69332714      -0.09616158       1.36008252      -0.69332714      -0.09616158       1.36008252
W       12.98381680       1.19646885      -0.85751143       0.56411225       0.96230743       2.62426453       0.56411225       0.96230743       2.62426453
W       10.52670950       1.90839741      -0.30173547      -2.19272618       0.85499207      -1.10605596      -2.19272618       0.85499207      -1.10605596
W       11.46162387       0.29172213       1.79123044       4.12590182      -1.19447929      -0.32553336       4.12590182      -1.19447929      -0.32553336
W        9.14925356       0.98982677       2.13320540      -2.93636308       0.25597594      -1.54428761      -2.93636308       0.25597594      -1.54428761
W       14.38238008       2.57879314       1.42820680      -0.83561544      -0.45785330      -0.27050361      -0.83561544      -0.45785330      -0.27050361
12
Lattice="15.58119319383914 1.928074288967494 0.4497903047518427 0.0 2.754391842810706 0.0 0.0 0.0 4.497903047518427" Properties=species:S:1:pos:R:3:force:R:3:REF_force:R:3 config_type=gamma_surface REF_energy=-131.9944279155716 REF_stress energy=-131.9944279155716 pbc="T T T"
W       -0.02556883       0.25381981      -0.33822422       1.64276336       0.56522066       3.89572205       1.64276336       0.56522066       3.89572205
W        5.22457398       0.96362819       0.02699027      -0.84985811      -0.03511329      -0.58494439      -0.84985811      -0.03511329      -0.58494439
W        2.64304771       1.83496394       0.01514808      -0.12507634       0.43795059      -0.12296269      -0.12507634       0.43795059      -0.12296269
W        3.95247239       0.02679126       2.38677471      -0.47904569      -0.03717969      -2.11237768      -0.47904569      -0.03717969      -2.11237768
W        1.39861913       0.91295815       2.15050419       0.04095667       1.38842627      -0.39528548       0.04095667       1.38842627      -0.39528548
W        6.45693759       1.89501120       2.11106924       0.70828461      -0.04943738       1.76058539       0.70828461      -0.04943738       1.76058539
W        7.71219670       0.07365024      -0.12979064       0.81546014      -0.31396980       1.25458654       0.81546014      -0.31396980       1.25458654
W       12.97058760       0.85799427       0.01181767      -1.41166141      -1.64128939       2.53802644      -1.41166141      -1.64128939       2.53802644
W       10.30785461       1.82039409       0.10550493       0.53213169      -0.00456396      -1.30399183       0.53213169      -0.00456396      -1.30399183
W       11.65890927      -0.12430007       2.28297146       0.13515101       0.63975747       0.47326136       0.13515101       0.63975747       0.47326136
W        9.02973989       0.97456291       2.26448240       0.26559143      -0.42787061      -0.55854072       0.26559143      -0.42787061      -0.55854072
W       14.36719258       1.52809342       2.60646106      -1.27469736      -0.52193087      -4.84407900      -1.27469736      -0.52193087      -4.84407900
12
Lattice="13.49370914255528 3.148532123262898 2.544398196586109 0.0 4.497903047518427 0.0 0.0 0.0 3.180497745732636" Properties=species:S:1:pos:R:3:force:R:3:REF_force:R:3 config_type=gamma_surface REF_energy=-128.8580170817731 REF_stress energy=-128.8580170817731 pbc="T T T"
W       -0.07139801       0.43283627       0.03901462       0.91355635      -2.78729276       0.50090505       0.91355635      -2.78729276       0.50090505
W        2.27550006       2.21614454       0.12768704       0.05690922       1.55852626      -0.97697300       0.05690922       1.55852626      -0.97697300
W        2.32665670       0.01973393       1.65484864      -1.62870237      -0.36032381      -0.22166894      -1.62870237      -0.36032381      -0.22166894
W       -0.02205796       2.41301920       1.59037594       0.45849972       2.07591819       0.56999622       0.45849972       2.07591819       0.56999622
W        4.43387207       0.03023461      -0.01891792       1.91193623      -0.73835039       0.51872582       1.91193623      -0.73835039       0.51872582
W        6.75205872       2.44993580       0.08130152       0.49408947      -4.67871474      -0.82834962       0.49408947      -4.67871474      -0.82834962
W        6.86614143      -0.18356305       1.66019220      -1.15642301       3.68390625      -0.73316231      -1.15642301       3.68390625      -0.73316231
W        4.55172230       2.20060343       1.55250877      -0.47379546       0.79268443       0.83431991      -0.47379546       0.79268443       0.83431991
W        9.12775613      -0.06835453      -0.08089858      -4.51027547      -2.19308180       0.81357604      -4.51027547      -2.19308180       0.81357604
W       11.07381567       2.21922424      -0.06926540       3.47024462      -1.39803493      -0.12369701       3.47024462      -1.39803493      -0.12369701
W       10.99884229      -0.13819474       1.53835295       4.84598609      -0.67868341      -1.16228426       4.84598609      -0.67868341      -1.16228426
W        9.15563630       1.90208946       1.46629341      -4.38202538       4.72344671       0.80861209      -4.38202538       4.72344671       0.80861209
12
Lattice="19.08300147439698 0.6361000491465659 0.0 0.0 3.180500245732829 0.0 0.0 0.0 3.180500245732829" Properties=species:S:1:pos:R:3:force:R:3:REF_force:R:3 config_type=gamma_surface virial_not="4.018870088614401 -5.890331050681786 -0.0 -5.890331050681786 1.060040481710084 -0.0 -0.0 -0.0 4.107432977280056" REF_energy=-133.2180969554174 REF_stress energy=-133.2180969554174 pbc="T T T"
W        0.00000000       0.00000000       0.00000000       2.29875089      -3.24073006       0.00000000       2.29875089      -3.24073006       0.00000000
W        1.59025012       1.59025012       1.59025012       0.17647404      -0.36899889       0.00000000       0.17647404      -0.36899889       0.00000000
W        3.18050025      -0.00000000       0.00000000       0.02526303       0.09129152       0.00000000       0.02526303       0.09129152       0.00000000
W        4.77075037       1.59025012       1.59025012       0.01058530       0.04882462       0.00000000       0.01058530       0.04882462       0.00000000
W        6.36100049      -0.00000000       0.00000000      -0.05464685      -0.01892336       0.00000000      -0.05464685      -0.01892336       0.00000000
W        7.95125061       1.59025012       1.59025012      -0.00836574       0.00168265       0.00000000      -0.00836574       0.00168265       0.00000000
W        9.54150074       0.00000000       0.00000000       0.00836574      -0.00168265       0.00000000       0.00836574      -0.00168265       0.00000000
W       11.13175086       1.59025012       1.59025012       0.05464685       0.01892336       0.00000000       0.05464685       0.01892336       0.00000000
W       12.72200098      -0.00000000       0.00000000      -0.01058530      -0.04882462       0.00000000      -0.01058530      -0.04882462       0.00000000
W       14.31225111       1.59025012       1.59025012      -0.02526303      -0.09129152       0.00000000      -0.02526303      -0.09129152       0.00000000
W       15.90250123      -0.00000000       0.00000000      -0.17647404       0.36899889       0.00000000      -0.17647404       0.36899889       0.00000000
W       17.49275135       1.59025012       1.59025012      -2.29875089       3.24073006       0.00000000      -2.29875089       3.24073006       0.00000000
1
Lattice="3.278785313326562 0.0 0.0 0.04787796369916257 3.096408769235727 0.0 1.644379607048584 1.555097780150463 1.565856000981668" Properties=species:S:1:pos:R:3:force:R:3:REF_force:R:3 config_type=slice_sample virial="-0.6315601709168442 -0.2100967318385461 0.1766506794167713 -0.2100967318385461 1.129826027135671 -0.07021562164586538 0.1766506794167713 -0.07021562164586538 0.7325066900038364" REF_energy=-11.16109025712217 REF_stress energy=-11.16109025712217 pbc="T T T"
W        0.00000000       0.00000000       0.00000000       0.00000000       0.00000000       0.00000000       0.00000000       0.00000000       0.00000000
47
Lattice="13.49371004255535 1.799160139007287 0.0 0.0 8.995804695036744 0.0 0.0 0.0 6.360995491465272" Properties=species:S:1:pos:R:3:force:R:3:REF_force:R:3 config_type=gamma_surface_vacancy REF_energy=-513.6410382678587 REF_stress energy=-513.6410382678587 pbc="T T T"
W        2.31578818       2.24895117       0.00000000      -0.00822318      -0.51416409      -0.00001220      -0.00822318      -0.51416409      -0.00001220
W        2.27381918      -0.00000000       1.59024812      -0.01739362      -0.12674048      -0.55427156      -0.01739362      -0.12674048      -0.55427156
W        0.15892801       2.24895117       1.59024812       0.02824995      -1.03997085      -0.12173797       0.02824995      -1.03997085      -0.12173797
W        4.49745935      -0.00000000       0.00000000      -0.01519696      -0.04973232      -0.00000275      -0.01519696      -0.04973232      -0.00000275
W        6.74368752       2.24895117       0.00000000       0.00111405       0.06561253       0.00000373       0.00111405       0.06561253       0.00000373
W        6.71353852      -0.00000000       1.59024812      -0.00443581       0.11403033      -0.06233640      -0.00443581       0.11403033      -0.06233640
W        4.52619435       2.24895117       1.59024812      -0.00525488       0.02304270      -0.01739781      -0.00525488       0.02304270      -0.01739781
W        8.91897869       0.00000000       0.00000000       0.01089157       0.22956791       0.00000570       0.01089157       0.22956791       0.00000570
W       11.33334088       2.24895117       0.00000000       0.00424745       0.31821838       0.00000289       0.00424745       0.31821838       0.00000289
W       11.08232386      -0.00000000       1.59024812      -0.02075604       0.70289794       0.12303508      -0.02075604       0.70289794       0.12303508
W        8.96493569       2.24895117       1.59024812       0.02378821       0.09657237      -0.49585246       0.02378821       0.09657237      -0.49585246
W        0.15084501      -0.00000000       3.18049825      -0.00255896      -1.01141877      -0.00000762      -0.00255896      -1.01141877      -0.00000762
W        2.33174318       2.24895117       3.18049825       0.00735704       0.07639640      -0.00000542       0.00735704       0.07639640      -0.00000542
W        2.27381918      -0.00000000       4.77074637      -0.01739308      -0.12673567       0.55429230      -0.01739308      -0.12673567       0.55429230
W        0.15892801       2.24895117       4.77074637       0.02825196      -1.03996744       0.12175324       0.02825196      -1.03996744       0.12175324
W        4.49061735      -0.00000000       3.18049825      -0.01062776      -0.02296103      -0.00001242      -0.01062776      -0.02296103      -0.00001242